PROCAR lm decomposed
# of k-points:   16         # of bands:   38         # of ions:    8

 k-point     1 :    0.00000000 0.00000000 0.00000000     weight = 0.00826446

band     1 # energy  -17.01006360 # occ.  1.00000000
 
ion      s     py     pz     px    dxy    dyz    dz2    dxz  x2-y2    tot
    1  0.020  0.000  0.000  0.000  0.000  0.000  0.000  0.000  0.000  0.020
    2  0.020  0.000  0.000  0.000  0.000  0.000  0.000  0.000  0.000  0.020
    3  0.110  0.000  0.001  0.000  0.000  0.000  0.000  0.000  0.000  0.111
    4  0.110  0.000  0.001  0.000  0.000  0.000  0.000  0.000  0.000  0.111
    5  0.110  0.000  0.001  0.000  0.000  0.000  0.000  0.000  0.000  0.111
    6  0.110  0.000  0.001  0.000  0.000  0.000  0.000  0.000  0.000  0.111
    7  0.110  0.000  0.001  0.000  0.000  0.000  0.000  0.000  0.000  0.111
    8  0.110  0.000  0.001  0.000  0.000  0.000  0.000  0.000  0.000  0.111
tot    0.702  0.001  0.003  0.001  0.000  0.000  0.000  0.000  0.000  0.707
 
band     2 # energy  -16.26520028 # occ.  1.00000000
 
ion      s     py     pz     px    dxy    dyz    dz2    dxz  x2-y2    tot
    1  0.000  0.000  0.007  0.000  0.000  0.000  0.000  0.000  0.000  0.007
    2  0.000  0.000  0.007  0.000  0.000  0.000  0.000  0.000  0.000  0.007
    3  0.122  0.000  0.000  0.000  0.000  0.000  0.000  0.000  0.000  0.122
    4  0.122  0.000  0.000  0.000  0.000  0.000  0.000  0.000  0.000  0.122
    5  0.122  0.000  0.000  0.000  0.000  0.000  0.000  0.000  0.000  0.122
    6  0.122  0.000  0.000  0.000  0.000  0.000  0.000  0.000  0.000  0.122
    7  0.122  0.000  0.000  0.000  0.000  0.000  0.000  0.000  0.000  0.122
    8  0.122  0.000  0.000  0.000  0.000  0.000  0.000  0.000  0.000  0.122
tot    0.731  0.000  0.014  0.000  0.000  0.000  0.000  0.000  0.000  0.746
 
band     3 # energy  -16.06007688 # occ.  1.00000000
 
ion      s     py     pz     px    dxy    dyz    dz2    dxz  x2-y2    tot
    1  0.000  0.005  0.000  0.002  0.000  0.000  0.000  0.001  0.001  0.010
    2  0.000  0.005  0.000  0.002  0.000  0.000  0.000  0.001  0.001  0.010
    3  0.000  0.000  0.000  0.000  0.000  0.000  0.000  0.000  0.000  0.000
    4  0.187  0.000  0.000  0.000  0.000  0.000  0.000  0.000  0.000  0.188
    5  0.187  0.000  0.000  0.000  0.000  0.000  0.000  0.000  0.000  0.188
    6  0.187  0.000  0.000  0.000  0.000  0.000  0.000  0.000  0.000  0.188
    7  0.000  0.000  0.000  0.000  0.000  0.000  0.000  0.000  0.000  0.000
    8  0.187  0.000  0.000  0.000  0.000  0.000  0.000  0.000  0.000  0.188
tot    0.749  0.011  0.001  0.004  0.001  0.001  0.000  0.002  0.003  0.771
 
band     4 # energy  -16.06007671 # occ.  1.00000000
 
ion      s     py     pz     px    dxy    dyz    dz2    dxz  x2-y2    tot
    1  0.000  0.002  0.000  0.005  0.001  0.001  0.000  0.000  0.000  0.010
    2  0.000  0.002  0.000  0.005  0.001  0.001  0.000  0.000  0.000  0.010
    3  0.250  0.000  0.000  0.000  0.000  0.000  0.000  0.000  0.000  0.250
    4  0.062  0.000  0.000  0.000  0.000  0.000  0.000  0.000  0.000  0.063
    5  0.062  0.000  0.000  0.000  0.000  0.000  0.000  0.000  0.000  0.063
    6  0.062  0.000  0.000  0.000  0.000  0.000  0.000  0.000  0.000  0.063
    7  0.250  0.000  0.000  0.000  0.000  0.000  0.000  0.000  0.000  0.250
    8  0.062  0.000  0.000  0.000  0.000  0.000  0.000  0.000  0.000  0.063
tot    0.749  0.004  0.001  0.011  0.003  0.002  0.000  0.001  0.001  0.771
 
band     5 # energy  -15.90440212 # occ.  1.00000000
 
ion      s     py     pz     px    dxy    dyz    dz2    dxz  x2-y2    tot
    1  0.000  0.000  0.000  0.001  0.002  0.004  0.000  0.001  0.001  0.010
    2  0.000  0.000  0.000  0.001  0.002  0.004  0.000  0.001  0.001  0.010
    3  0.000  0.000  0.000  0.000  0.000  0.000  0.000  0.000  0.000  0.000
    4  0.190  0.000  0.000  0.000  0.000  0.000  0.000  0.000  0.000  0.190
    5  0.190  0.000  0.000  0.000  0.000  0.000  0.000  0.000  0.000  0.190
    6  0.190  0.000  0.000  0.000  0.000  0.000  0.000  0.000  0.000  0.190
    7  0.000  0.000  0.000  0.000  0.000  0.000  0.000  0.000  0.000  0.000
    8  0.190  0.000  0.000  0.000  0.000  0.000  0.000  0.000  0.000  0.190
tot    0.761  0.001  0.001  0.002  0.004  0.009  0.000  0.003  0.001  0.782
 
band     6 # energy  -15.90440207 # occ.  1.00000000
 
ion      s     py     pz     px    dxy    dyz    dz2    dxz  x2-y2    tot
    1  0.000  0.001  0.000  0.000  0.001  0.001  0.000  0.004  0.002  0.010
    2  0.000  0.001  0.000  0.000  0.001  0.001  0.000  0.004  0.002  0.010
    3  0.254  0.000  0.000  0.000  0.000  0.000  0.000  0.000  0.000  0.254
    4  0.063  0.000  0.000  0.000  0.000  0.000  0.000  0.000  0.000  0.063
    5  0.063  0.000  0.000  0.000  0.000  0.000  0.000  0.000  0.000  0.063
    6  0.063  0.000  0.000  0.000  0.000  0.000  0.000  0.000  0.000  0.063
    7  0.254  0.000  0.000  0.000  0.000  0.000  0.000  0.000  0.000  0.254
    8  0.063  0.000  0.000  0.000  0.000  0.000  0.000  0.000  0.000  0.063
tot    0.761  0.002  0.001  0.001  0.001  0.003  0.000  0.009  0.004  0.782
 
band     7 # energy   -8.76673018 # occ.  1.00000000
 
ion      s     py     pz     px    dxy    dyz    dz2    dxz  x2-y2    tot
    1  0.090  0.000  0.000  0.000  0.000  0.000  0.009  0.000  0.000  0.099
    2  0.090  0.000  0.000  0.000  0.000  0.000  0.009  0.000  0.000  0.099
    3  0.000  0.014  0.000  0.043  0.000  0.000  0.000  0.000  0.000  0.059
    4  0.000  0.058  0.000  0.000  0.001  0.001  0.000  0.000  0.000  0.059
    5  0.000  0.058  0.000  0.000  0.001  0.001  0.000  0.000  0.000  0.059
    6  0.000  0.014  0.000  0.043  0.000  0.000  0.000  0.000  0.000  0.059
    7  0.000  0.014  0.000  0.043  0.000  0.000  0.000  0.000  0.000  0.059
    8  0.000  0.014  0.000  0.043  0.000  0.000  0.000  0.000  0.000  0.059
tot    0.179  0.174  0.000  0.174  0.002  0.002  0.018  0.002  0.002  0.551
 
band     8 # energy   -8.15600338 # occ.  1.00000000
 
ion      s     py     pz     px    dxy    dyz    dz2    dxz  x2-y2    tot
    1  0.047  0.000  0.000  0.000  0.000  0.000  0.036  0.000  0.000  0.083
    2  0.047  0.000  0.000  0.000  0.000  0.000  0.036  0.000  0.000  0.083
    3  0.005  0.003  0.054  0.001  0.000  0.000  0.000  0.000  0.000  0.064
    4  0.005  0.000  0.054  0.004  0.000  0.000  0.000  0.000  0.000  0.064
    5  0.005  0.000  0.054  0.004  0.000  0.000  0.000  0.000  0.000  0.064
    6  0.005  0.003  0.054  0.001  0.000  0.000  0.000  0.000  0.000  0.064
    7  0.005  0.003  0.054  0.001  0.000  0.000  0.000  0.000  0.000  0.064
    8  0.005  0.003  0.054  0.001  0.000  0.000  0.000  0.000  0.000  0.064
tot    0.127  0.013  0.324  0.013  0.000  0.001  0.073  0.001  0.000  0.553
 
band     9 # energy   -7.62447904 # occ.  1.00000000
 
ion      s     py     pz     px    dxy    dyz    dz2    dxz  x2-y2    tot
    1  0.000  0.019  0.000  0.006  0.004  0.008  0.000  0.024  0.013  0.076
    2  0.000  0.019  0.000  0.006  0.004  0.008  0.000  0.024  0.013  0.076
    3  0.000  0.009  0.000  0.027  0.000  0.000  0.000  0.000  0.000  0.036
    4  0.003  0.009  0.030  0.038  0.000  0.000  0.000  0.000  0.000  0.081
    5  0.003  0.009  0.030  0.038  0.000  0.000  0.000  0.000  0.000  0.081
    6  0.003  0.047  0.030  0.000  0.000  0.000  0.000  0.000  0.000  0.081
    7  0.000  0.009  0.000  0.027  0.000  0.000  0.000  0.000  0.000  0.036
    8  0.003  0.047  0.030  0.000  0.000  0.000  0.000  0.000  0.000  0.081
tot    0.011  0.168  0.121  0.143  0.010  0.017  0.001  0.050  0.028  0.548
 
band    10 # energy   -7.62447850 # occ.  1.00000000
 
ion      s     py     pz     px    dxy    dyz    dz2    dxz  x2-y2    tot
    1  0.000  0.006  0.000  0.019  0.013  0.024  0.000  0.008  0.004  0.076
    2  0.000  0.006  0.000  0.019  0.013  0.024  0.000  0.008  0.004  0.076
    3  0.004  0.038  0.040  0.013  0.000  0.000  0.000  0.000  0.000  0.096
    4  0.001  0.027  0.010  0.013  0.000  0.000  0.000  0.000  0.000  0.051
    5  0.001  0.027  0.010  0.013  0.000  0.000  0.000  0.000  0.000  0.051
    6  0.001  0.000  0.010  0.039  0.000  0.000  0.000  0.000  0.000  0.051
    7  0.004  0.038  0.040  0.013  0.000  0.000  0.000  0.000  0.000  0.096
    8  0.001  0.000  0.010  0.039  0.000  0.000  0.000  0.000  0.000  0.051
tot    0.011  0.143  0.121  0.168  0.028  0.050  0.001  0.017  0.010  0.548
 
band    11 # energy   -7.54591099 # occ.  1.00000000
 
ion      s     py     pz     px    dxy    dyz    dz2    dxz  x2-y2    tot
    1  0.000  0.009  0.000  0.003  0.002  0.019  0.000  0.058  0.007  0.099
    2  0.000  0.009  0.000  0.003  0.002  0.019  0.000  0.058  0.007  0.099
    3  0.000  0.042  0.005  0.014  0.000  0.000  0.000  0.000  0.000  0.062
    4  0.000  0.041  0.001  0.014  0.000  0.000  0.000  0.000  0.000  0.057
    5  0.000  0.041  0.001  0.014  0.000  0.000  0.000  0.000  0.000  0.057
    6  0.000  0.000  0.001  0.055  0.000  0.000  0.000  0.000  0.000  0.057
    7  0.000  0.042  0.005  0.014  0.000  0.000  0.000  0.000  0.000  0.062
    8  0.000  0.000  0.001  0.055  0.000  0.000  0.000  0.000  0.000  0.057
tot    0.000  0.184  0.015  0.172  0.005  0.040  0.001  0.117  0.015  0.550
 
band    12 # energy   -7.54591084 # occ.  1.00000000
 
ion      s     py     pz     px    dxy    dyz    dz2    dxz  x2-y2    tot
    1  0.000  0.003  0.000  0.009  0.007  0.058  0.000  0.019  0.002  0.099
    2  0.000  0.003  0.000  0.009  0.007  0.058  0.000  0.019  0.002  0.099
    3  0.000  0.014  0.000  0.041  0.000  0.000  0.000  0.000  0.000  0.055
    4  0.000  0.014  0.004  0.042  0.000  0.000  0.000  0.000  0.000  0.060
    5  0.000  0.014  0.004  0.042  0.000  0.000  0.000  0.000  0.000  0.060
    6  0.000  0.056  0.004  0.000  0.000  0.000  0.000  0.000  0.000  0.060
    7  0.000  0.014  0.000  0.041  0.000  0.000  0.000  0.000  0.000  0.055
    8  0.000  0.056  0.004  0.000  0.000  0.000  0.000  0.000  0.000  0.060
tot    0.000  0.172  0.015  0.184  0.015  0.117  0.001  0.040  0.005  0.550
 
band    13 # energy   -7.32826364 # occ.  1.00000000
 
ion      s     py     pz     px    dxy    dyz    dz2    dxz  x2-y2    tot
    1  0.000  0.000  0.043  0.000  0.000  0.000  0.000  0.000  0.000  0.043
    2  0.000  0.000  0.043  0.000  0.000  0.000  0.000  0.000  0.000  0.043
    3  0.000  0.018  0.000  0.055  0.000  0.000  0.000  0.000  0.000  0.074
    4  0.000  0.074  0.000  0.000  0.001  0.000  0.000  0.000  0.000  0.074
    5  0.000  0.074  0.000  0.000  0.001  0.000  0.000  0.000  0.000  0.074
    6  0.000  0.018  0.000  0.055  0.000  0.000  0.000  0.000  0.000  0.074
    7  0.000  0.018  0.000  0.055  0.000  0.000  0.000  0.000  0.000  0.074
    8  0.000  0.018  0.000  0.055  0.000  0.000  0.000  0.000  0.000  0.074
tot    0.000  0.221  0.087  0.221  0.002  0.000  0.000  0.000  0.002  0.533
 
band    14 # energy   -6.92925488 # occ.  1.00000000
 
ion      s     py     pz     px    dxy    dyz    dz2    dxz  x2-y2    tot
    1  0.000  0.000  0.000  0.000  0.091  0.074  0.000  0.025  0.030  0.219
    2  0.000  0.000  0.000  0.000  0.091  0.074  0.000  0.025  0.030  0.219
    3  0.001  0.003  0.031  0.001  0.000  0.000  0.000  0.000  0.000  0.037
    4  0.000  0.050  0.008  0.001  0.000  0.001  0.000  0.000  0.000  0.060
    5  0.000  0.050  0.008  0.001  0.000  0.001  0.000  0.000  0.000  0.060
    6  0.000  0.019  0.008  0.031  0.000  0.001  0.000  0.000  0.000  0.060
    7  0.001  0.003  0.031  0.001  0.000  0.000  0.000  0.000  0.000  0.037
    8  0.000  0.019  0.008  0.031  0.000  0.001  0.000  0.000  0.000  0.060
tot    0.004  0.144  0.093  0.067  0.182  0.151  0.000  0.050  0.061  0.752
 
band    15 # energy   -6.92925480 # occ.  1.00000000
 
ion      s     py     pz     px    dxy    dyz    dz2    dxz  x2-y2    tot
    1  0.000  0.000  0.000  0.000  0.030  0.025  0.000  0.074  0.091  0.219
    2  0.000  0.000  0.000  0.000  0.030  0.025  0.000  0.074  0.091  0.219
    3  0.000  0.017  0.000  0.050  0.000  0.000  0.000  0.001  0.000  0.067
    4  0.001  0.017  0.023  0.003  0.000  0.000  0.000  0.000  0.000  0.045
    5  0.001  0.017  0.023  0.003  0.000  0.000  0.000  0.000  0.000  0.045
    6  0.001  0.000  0.023  0.019  0.000  0.000  0.000  0.001  0.000  0.045
    7  0.000  0.017  0.000  0.050  0.000  0.000  0.000  0.001  0.000  0.067
    8  0.001  0.000  0.023  0.019  0.000  0.000  0.000  0.001  0.000  0.045
tot    0.004  0.067  0.093  0.144  0.061  0.050  0.000  0.151  0.182  0.752
 
band    16 # energy   -6.63962110 # occ.  1.00000000
 
ion      s     py     pz     px    dxy    dyz    dz2    dxz  x2-y2    tot
    1  0.014  0.000  0.000  0.000  0.000  0.000  0.073  0.000  0.000  0.087
    2  0.014  0.000  0.000  0.000  0.000  0.000  0.073  0.000  0.000  0.087
    3  0.001  0.044  0.002  0.015  0.000  0.000  0.000  0.000  0.000  0.062
    4  0.001  0.000  0.002  0.059  0.000  0.000  0.000  0.000  0.000  0.062
    5  0.001  0.000  0.002  0.059  0.000  0.000  0.000  0.000  0.000  0.062
    6  0.001  0.044  0.002  0.015  0.000  0.000  0.000  0.000  0.000  0.062
    7  0.001  0.044  0.002  0.015  0.000  0.000  0.000  0.000  0.000  0.062
    8  0.001  0.044  0.002  0.015  0.000  0.000  0.000  0.000  0.000  0.062
tot    0.033  0.177  0.011  0.177  0.001  0.000  0.147  0.000  0.001  0.548
 
band    17 # energy   -6.40984948 # occ.  1.00000000
 
ion      s     py     pz     px    dxy    dyz    dz2    dxz  x2-y2    tot
    1  0.000  0.000  0.000  0.001  0.098  0.048  0.000  0.016  0.033  0.196
    2  0.000  0.000  0.000  0.001  0.098  0.048  0.000  0.016  0.033  0.196
    3  0.000  0.001  0.000  0.003  0.000  0.000  0.000  0.000  0.000  0.005
    4  0.002  0.001  0.077  0.001  0.000  0.000  0.000  0.000  0.000  0.081
    5  0.002  0.001  0.077  0.001  0.000  0.000  0.000  0.000  0.000  0.081
    6  0.002  0.001  0.077  0.000  0.000  0.000  0.000  0.000  0.000  0.081
    7  0.000  0.001  0.000  0.003  0.000  0.000  0.000  0.000  0.000  0.005
    8  0.002  0.001  0.077  0.000  0.000  0.000  0.000  0.000  0.000  0.081
tot    0.009  0.008  0.307  0.010  0.197  0.096  0.000  0.032  0.066  0.724
 
band    18 # energy   -6.40984926 # occ.  1.00000000
 
ion      s     py     pz     px    dxy    dyz    dz2    dxz  x2-y2    tot
    1  0.000  0.001  0.000  0.000  0.033  0.016  0.000  0.048  0.098  0.196
    2  0.000  0.001  0.000  0.000  0.033  0.016  0.000  0.048  0.098  0.196
    3  0.003  0.001  0.102  0.000  0.000  0.000  0.000  0.000  0.000  0.106
    4  0.001  0.003  0.026  0.000  0.000  0.000  0.000  0.000  0.000  0.030
    5  0.001  0.003  0.026  0.000  0.000  0.000  0.000  0.000  0.000  0.030
    6  0.001  0.000  0.026  0.003  0.000  0.000  0.000  0.000  0.000  0.030
    7  0.003  0.001  0.102  0.000  0.000  0.000  0.000  0.000  0.000  0.106
    8  0.001  0.000  0.026  0.003  0.000  0.000  0.000  0.000  0.000  0.030
tot    0.009  0.010  0.307  0.008  0.066  0.032  0.000  0.096  0.197  0.724
 
band    19 # energy   -5.77068512 # occ.  1.00000000
 
ion      s     py     pz     px    dxy    dyz    dz2    dxz  x2-y2    tot
    1  0.000  0.000  0.019  0.000  0.000  0.000  0.000  0.000  0.000  0.019
    2  0.000  0.000  0.019  0.000  0.000  0.000  0.000  0.000  0.000  0.019
    3  0.000  0.059  0.004  0.020  0.000  0.000  0.000  0.000  0.000  0.084
    4  0.000  0.000  0.004  0.079  0.000  0.000  0.000  0.000  0.000  0.084
    5  0.000  0.000  0.004  0.079  0.000  0.000  0.000  0.000  0.000  0.084
    6  0.000  0.059  0.004  0.020  0.000  0.000  0.000  0.000  0.000  0.084
    7  0.000  0.059  0.004  0.020  0.000  0.000  0.000  0.000  0.000  0.084
    8  0.000  0.059  0.004  0.020  0.000  0.000  0.000  0.000  0.000  0.084
tot    0.003  0.236  0.064  0.236  0.001  0.000  0.001  0.000  0.001  0.543
 
band    20 # energy   -5.44128232 # occ.  1.00000000
 
ion      s     py     pz     px    dxy    dyz    dz2    dxz  x2-y2    tot
    1  0.000  0.007  0.000  0.002  0.036  0.017  0.000  0.052  0.107  0.222
    2  0.000  0.007  0.000  0.002  0.036  0.017  0.000  0.052  0.107  0.222
    3  0.000  0.001  0.000  0.004  0.000  0.000  0.000  0.000  0.000  0.006
    4  0.000  0.001  0.051  0.016  0.000  0.000  0.000  0.000  0.000  0.069
    5  0.000  0.001  0.051  0.016  0.000  0.000  0.000  0.000  0.000  0.069
    6  0.000  0.008  0.051  0.009  0.000  0.000  0.000  0.000  0.000  0.069
    7  0.000  0.001  0.000  0.004  0.000  0.000  0.000  0.000  0.000  0.006
    8  0.000  0.008  0.051  0.009  0.000  0.000  0.000  0.000  0.000  0.069
tot    0.001  0.035  0.204  0.061  0.072  0.035  0.000  0.106  0.216  0.730
 
band    21 # energy   -5.44128185 # occ.  1.00000000
 
ion      s     py     pz     px    dxy    dyz    dz2    dxz  x2-y2    tot
    1  0.000  0.002  0.000  0.007  0.107  0.052  0.000  0.017  0.036  0.222
    2  0.000  0.002  0.000  0.007  0.107  0.052  0.000  0.017  0.036  0.222
    3  0.000  0.016  0.068  0.005  0.000  0.000  0.000  0.000  0.000  0.089
    4  0.000  0.004  0.017  0.005  0.000  0.000  0.000  0.000  0.000  0.027
    5  0.000  0.004  0.017  0.005  0.000  0.000  0.000  0.000  0.000  0.027
    6  0.000  0.009  0.017  0.000  0.000  0.000  0.000  0.000  0.000  0.027
    7  0.000  0.016  0.068  0.005  0.000  0.000  0.000  0.000  0.000  0.089
    8  0.000  0.009  0.017  0.000  0.000  0.000  0.000  0.000  0.000  0.027
tot    0.001  0.061  0.204  0.035  0.216  0.106  0.000  0.035  0.072  0.730
 
band    22 # energy   -5.33018724 # occ.  1.00000000
 
ion      s     py     pz     px    dxy    dyz    dz2    dxz  x2-y2    tot
    1  0.007  0.000  0.000  0.000  0.000  0.000  0.442  0.000  0.000  0.449
    2  0.007  0.000  0.000  0.000  0.000  0.000  0.442  0.000  0.000  0.449
    3  0.000  0.000  0.000  0.001  0.000  0.000  0.000  0.001  0.000  0.002
    4  0.000  0.001  0.000  0.000  0.000  0.001  0.000  0.000  0.000  0.002
    5  0.000  0.001  0.000  0.000  0.000  0.001  0.000  0.000  0.000  0.002
    6  0.000  0.000  0.000  0.001  0.000  0.000  0.000  0.001  0.000  0.002
    7  0.000  0.000  0.000  0.001  0.000  0.000  0.000  0.001  0.000  0.002
    8  0.000  0.000  0.000  0.001  0.000  0.000  0.000  0.001  0.000  0.002
tot    0.014  0.003  0.000  0.003  0.000  0.002  0.884  0.002  0.000  0.908
 
band    23 # energy   -5.29483042 # occ.  1.00000000
 
ion      s     py     pz     px    dxy    dyz    dz2    dxz  x2-y2    tot
    1  0.000  0.000  0.004  0.000  0.000  0.000  0.000  0.000  0.000  0.004
    2  0.000  0.000  0.004  0.000  0.000  0.000  0.000  0.000  0.000  0.004
    3  0.001  0.003  0.084  0.001  0.000  0.000  0.000  0.000  0.000  0.089
    4  0.001  0.000  0.084  0.004  0.000  0.000  0.000  0.000  0.000  0.089
    5  0.001  0.000  0.084  0.004  0.000  0.000  0.000  0.000  0.000  0.089
    6  0.001  0.003  0.084  0.001  0.000  0.000  0.000  0.000  0.000  0.089
    7  0.001  0.003  0.084  0.001  0.000  0.000  0.000  0.000  0.000  0.089
    8  0.001  0.003  0.084  0.001  0.000  0.000  0.000  0.000  0.000  0.089
tot    0.006  0.013  0.512  0.013  0.000  0.000  0.000  0.000  0.000  0.544
 
band    24 # energy   -5.04543639 # occ.  1.00000000
 
ion      s     py     pz     px    dxy    dyz    dz2    dxz  x2-y2    tot
    1  0.000  0.010  0.000  0.003  0.050  0.023  0.000  0.068  0.149  0.303
    2  0.000  0.010  0.000  0.003  0.050  0.023  0.000  0.068  0.149  0.303
    3  0.000  0.003  0.020  0.001  0.000  0.000  0.000  0.000  0.000  0.024
    4  0.000  0.037  0.005  0.001  0.000  0.000  0.000  0.000  0.000  0.044
    5  0.000  0.037  0.005  0.001  0.000  0.000  0.000  0.000  0.000  0.044
    6  0.000  0.016  0.005  0.023  0.000  0.000  0.000  0.000  0.000  0.044
    7  0.000  0.003  0.020  0.001  0.000  0.000  0.000  0.000  0.000  0.024
    8  0.000  0.016  0.005  0.023  0.000  0.000  0.000  0.000  0.000  0.044
tot    0.000  0.132  0.059  0.056  0.100  0.046  0.001  0.136  0.298  0.829
 
band    25 # energy   -5.04543584 # occ.  1.00000000
 
ion      s     py     pz     px    dxy    dyz    dz2    dxz  x2-y2    tot
    1  0.000  0.003  0.000  0.010  0.149  0.068  0.000  0.023  0.050  0.303
    2  0.000  0.003  0.000  0.010  0.149  0.068  0.000  0.023  0.050  0.303
    3  0.000  0.012  0.000  0.037  0.000  0.000  0.000  0.000  0.000  0.050
    4  0.000  0.012  0.015  0.003  0.000  0.000  0.000  0.000  0.000  0.031
    5  0.000  0.012  0.015  0.003  0.000  0.000  0.000  0.000  0.000  0.031
    6  0.000  0.000  0.015  0.016  0.000  0.000  0.000  0.000  0.000  0.031
    7  0.000  0.012  0.000  0.037  0.000  0.000  0.000  0.000  0.000  0.050
    8  0.000  0.000  0.015  0.016  0.000  0.000  0.000  0.000  0.000  0.031
tot    0.000  0.056  0.059  0.132  0.298  0.136  0.001  0.046  0.100  0.829
 
band    26 # energy   -4.89098075 # occ.  1.00000000
 
ion      s     py     pz     px    dxy    dyz    dz2    dxz  x2-y2    tot
    1  0.003  0.000  0.000  0.000  0.000  0.000  0.340  0.000  0.000  0.342
    2  0.003  0.000  0.000  0.000  0.000  0.000  0.340  0.000  0.000  0.342
    3  0.000  0.008  0.010  0.003  0.000  0.000  0.001  0.000  0.000  0.022
    4  0.000  0.000  0.010  0.011  0.000  0.000  0.001  0.000  0.000  0.022
    5  0.000  0.000  0.010  0.011  0.000  0.000  0.001  0.000  0.000  0.022
    6  0.000  0.008  0.010  0.003  0.000  0.000  0.001  0.000  0.000  0.022
    7  0.000  0.008  0.010  0.003  0.000  0.000  0.001  0.000  0.000  0.022
    8  0.000  0.008  0.010  0.003  0.000  0.000  0.001  0.000  0.000  0.022
tot    0.007  0.032  0.063  0.032  0.000  0.000  0.682  0.000  0.000  0.818
 
band    27 # energy   -4.79478346 # occ.  1.00000000
 
ion      s     py     pz     px    dxy    dyz    dz2    dxz  x2-y2    tot
    1  0.000  0.000  0.000  0.000  0.014  0.038  0.000  0.114  0.041  0.208
    2  0.000  0.000  0.000  0.000  0.014  0.038  0.000  0.114  0.041  0.208
    3  0.000  0.000  0.000  0.000  0.000  0.000  0.000  0.000  0.001  0.001
    4  0.000  0.000  0.018  0.060  0.000  0.000  0.000  0.000  0.000  0.079
    5  0.000  0.000  0.018  0.060  0.000  0.000  0.000  0.000  0.000  0.079
    6  0.000  0.046  0.018  0.014  0.000  0.000  0.000  0.000  0.000  0.079
    7  0.000  0.000  0.000  0.000  0.000  0.000  0.000  0.000  0.001  0.001
    8  0.000  0.046  0.018  0.014  0.000  0.000  0.000  0.000  0.000  0.079
tot    0.001  0.092  0.071  0.149  0.028  0.077  0.000  0.229  0.084  0.732
 
band    28 # energy   -4.79478294 # occ.  1.00000000
 
ion      s     py     pz     px    dxy    dyz    dz2    dxz  x2-y2    tot
    1  0.000  0.000  0.000  0.000  0.041  0.114  0.000  0.038  0.014  0.208
    2  0.000  0.000  0.000  0.000  0.041  0.114  0.000  0.038  0.014  0.208
    3  0.000  0.060  0.024  0.020  0.000  0.000  0.000  0.000  0.000  0.105
    4  0.000  0.000  0.006  0.020  0.001  0.000  0.000  0.000  0.000  0.027
    5  0.000  0.000  0.006  0.020  0.001  0.000  0.000  0.000  0.000  0.027
    6  0.000  0.014  0.006  0.006  0.000  0.000  0.000  0.000  0.000  0.027
    7  0.000  0.060  0.024  0.020  0.000  0.000  0.000  0.000  0.000  0.105
    8  0.000  0.014  0.006  0.006  0.000  0.000  0.000  0.000  0.000  0.027
tot    0.001  0.149  0.071  0.092  0.084  0.229  0.000  0.077  0.028  0.732
 
band    29 # energy   -4.35855435 # occ.  1.00000000
 
ion      s     py     pz     px    dxy    dyz    dz2    dxz  x2-y2    tot
    1  0.000  0.004  0.000  0.001  0.012  0.011  0.000  0.032  0.036  0.096
    2  0.000  0.004  0.000  0.001  0.012  0.011  0.000  0.032  0.036  0.096
    3  0.000  0.086  0.000  0.029  0.000  0.000  0.000  0.000  0.000  0.115
    4  0.000  0.041  0.000  0.029  0.000  0.000  0.000  0.000  0.000  0.069
    5  0.000  0.041  0.000  0.029  0.000  0.000  0.000  0.000  0.000  0.069
    6  0.000  0.061  0.000  0.008  0.000  0.000  0.000  0.000  0.000  0.069
    7  0.000  0.086  0.000  0.029  0.000  0.000  0.000  0.000  0.000  0.115
    8  0.000  0.061  0.000  0.008  0.000  0.000  0.000  0.000  0.000  0.069
tot    0.000  0.384  0.001  0.133  0.024  0.022  0.000  0.065  0.071  0.700
 
band    30 # energy   -4.35855406 # occ.  1.00000000
 
ion      s     py     pz     px    dxy    dyz    dz2    dxz  x2-y2    tot
    1  0.000  0.001  0.000  0.004  0.036  0.032  0.000  0.011  0.012  0.096
    2  0.000  0.001  0.000  0.004  0.036  0.032  0.000  0.011  0.012  0.096
    3  0.000  0.014  0.000  0.041  0.000  0.000  0.000  0.000  0.000  0.054
    4  0.000  0.014  0.000  0.086  0.000  0.000  0.000  0.000  0.000  0.100
    5  0.000  0.014  0.000  0.086  0.000  0.000  0.000  0.000  0.000  0.100
    6  0.000  0.038  0.000  0.061  0.000  0.000  0.000  0.000  0.000  0.100
    7  0.000  0.014  0.000  0.041  0.000  0.000  0.000  0.000  0.000  0.054
    8  0.000  0.038  0.000  0.061  0.000  0.000  0.000  0.000  0.000  0.100
tot    0.000  0.133  0.001  0.384  0.071  0.065  0.000  0.022  0.024  0.700
 
band    31 # energy   -3.14120243 # occ.  0.00000000
 
ion      s     py     pz     px    dxy    dyz    dz2    dxz  x2-y2    tot
    1  0.000  0.000  0.000  0.000  0.056  0.144  0.000  0.048  0.019  0.267
    2  0.000  0.000  0.000  0.000  0.056  0.144  0.000  0.048  0.019  0.267
    3  0.000  0.006  0.000  0.017  0.000  0.000  0.000  0.001  0.000  0.024
    4  0.002  0.006  0.041  0.002  0.000  0.000  0.000  0.001  0.001  0.053
    5  0.002  0.006  0.041  0.002  0.000  0.000  0.000  0.001  0.001  0.053
    6  0.002  0.006  0.041  0.002  0.001  0.001  0.000  0.000  0.000  0.053
    7  0.000  0.006  0.000  0.017  0.000  0.000  0.000  0.001  0.000  0.024
    8  0.002  0.006  0.041  0.002  0.001  0.001  0.000  0.000  0.000  0.053
tot    0.009  0.036  0.165  0.042  0.114  0.291  0.000  0.099  0.039  0.794
 
band    32 # energy   -3.14120239 # occ.  0.00000000
 
ion      s     py     pz     px    dxy    dyz    dz2    dxz  x2-y2    tot
    1  0.000  0.000  0.000  0.000  0.019  0.048  0.000  0.144  0.056  0.267
    2  0.000  0.000  0.000  0.000  0.019  0.048  0.000  0.144  0.056  0.267
    3  0.003  0.002  0.055  0.001  0.001  0.001  0.000  0.000  0.000  0.063
    4  0.001  0.017  0.014  0.001  0.000  0.001  0.000  0.000  0.000  0.034
    5  0.001  0.017  0.014  0.001  0.000  0.001  0.000  0.000  0.000  0.034
    6  0.001  0.002  0.014  0.016  0.000  0.000  0.000  0.001  0.000  0.034
    7  0.003  0.002  0.055  0.001  0.001  0.001  0.000  0.000  0.000  0.063
    8  0.001  0.002  0.014  0.016  0.000  0.000  0.000  0.001  0.000  0.034
tot    0.009  0.042  0.165  0.036  0.039  0.099  0.000  0.291  0.114  0.794
 
band    33 # energy   -2.73247711 # occ.  0.00000000
 
ion      s     py     pz     px    dxy    dyz    dz2    dxz  x2-y2    tot
    1  0.000  0.000  0.000  0.000  0.096  0.081  0.000  0.027  0.032  0.236
    2  0.000  0.000  0.000  0.000  0.096  0.081  0.000  0.027  0.032  0.236
    3  0.001  0.018  0.006  0.006  0.000  0.000  0.000  0.000  0.000  0.030
    4  0.000  0.060  0.001  0.006  0.001  0.001  0.000  0.000  0.000  0.070
    5  0.000  0.060  0.001  0.006  0.001  0.001  0.000  0.000  0.000  0.070
    6  0.000  0.036  0.001  0.030  0.000  0.000  0.000  0.001  0.000  0.070
    7  0.001  0.018  0.006  0.006  0.000  0.000  0.000  0.000  0.000  0.030
    8  0.000  0.036  0.001  0.030  0.000  0.000  0.000  0.001  0.000  0.070
tot    0.003  0.227  0.017  0.084  0.193  0.166  0.000  0.056  0.065  0.811
 
band    34 # energy   -2.73247688 # occ.  0.00000000
 
ion      s     py     pz     px    dxy    dyz    dz2    dxz  x2-y2    tot
    1  0.000  0.000  0.000  0.000  0.032  0.027  0.000  0.081  0.096  0.236
    2  0.000  0.000  0.000  0.000  0.032  0.027  0.000  0.081  0.096  0.236
    3  0.000  0.020  0.000  0.060  0.000  0.000  0.000  0.001  0.001  0.083
    4  0.001  0.020  0.004  0.018  0.000  0.000  0.000  0.000  0.000  0.043
    5  0.001  0.020  0.004  0.018  0.000  0.000  0.000  0.000  0.000  0.043
    6  0.001  0.002  0.004  0.036  0.000  0.000  0.000  0.000  0.000  0.043
    7  0.000  0.020  0.000  0.060  0.000  0.000  0.000  0.001  0.001  0.083
    8  0.001  0.002  0.004  0.036  0.000  0.000  0.000  0.000  0.000  0.043
tot    0.003  0.084  0.017  0.227  0.065  0.056  0.000  0.166  0.193  0.811
 
band    35 # energy    0.31987497 # occ.  0.00000000
 
ion      s     py     pz     px    dxy    dyz    dz2    dxz  x2-y2    tot
    1  0.041  0.000  0.000  0.000  0.000  0.000  0.000  0.000  0.000  0.041
    2  0.041  0.000  0.000  0.000  0.000  0.000  0.000  0.000  0.000  0.041
    3  0.018  0.001  0.000  0.000  0.000  0.000  0.000  0.000  0.000  0.020
    4  0.018  0.000  0.000  0.001  0.000  0.000  0.000  0.000  0.000  0.020
    5  0.018  0.000  0.000  0.001  0.000  0.000  0.000  0.000  0.000  0.020
    6  0.018  0.001  0.000  0.000  0.000  0.000  0.000  0.000  0.000  0.020
    7  0.018  0.001  0.000  0.000  0.000  0.000  0.000  0.000  0.000  0.020
    8  0.018  0.001  0.000  0.000  0.000  0.000  0.000  0.000  0.000  0.020
tot    0.193  0.002  0.002  0.002  0.000  0.001  0.000  0.001  0.000  0.201
 
band    36 # energy    0.56315061 # occ.  0.00000000
 
ion      s     py     pz     px    dxy    dyz    dz2    dxz  x2-y2    tot
    1  0.127  0.000  0.000  0.000  0.000  0.000  0.015  0.000  0.000  0.142
    2  0.127  0.000  0.000  0.000  0.000  0.000  0.015  0.000  0.000  0.142
    3  0.000  0.004  0.000  0.011  0.000  0.004  0.000  0.013  0.000  0.033
    4  0.000  0.015  0.000  0.000  0.001  0.018  0.000  0.000  0.000  0.033
    5  0.000  0.015  0.000  0.000  0.001  0.018  0.000  0.000  0.000  0.033
    6  0.000  0.004  0.000  0.011  0.000  0.004  0.000  0.013  0.000  0.033
    7  0.000  0.004  0.000  0.011  0.000  0.004  0.000  0.013  0.000  0.033
    8  0.000  0.004  0.000  0.011  0.000  0.004  0.000  0.013  0.000  0.033
tot    0.254  0.044  0.000  0.044  0.002  0.053  0.030  0.053  0.002  0.480
 
band    37 # energy    1.02478861 # occ.  0.00000000
 
ion      s     py     pz     px    dxy    dyz    dz2    dxz  x2-y2    tot
    1  0.000  0.000  0.008  0.000  0.000  0.000  0.000  0.000  0.000  0.008
    2  0.000  0.000  0.008  0.000  0.000  0.000  0.000  0.000  0.000  0.008
    3  0.004  0.000  0.007  0.000  0.000  0.000  0.000  0.000  0.000  0.012
    4  0.004  0.000  0.007  0.000  0.000  0.000  0.000  0.000  0.000  0.012