    8    8  100    2
  0.2122975E+03  0.7002000E-09  0.7002000E-09  0.4000000E-08  0.5000000E-15
  1.000000000000000E-004
  CAR 
 monolayer-CrI3                          
     54     16     38
 
  0.0000000E+00  0.0000000E+00  0.0000000E+00  0.8264463E-02
    1      -17.010441    -17.032165   1.000000   1.000000
    2      -16.265660    -16.332184   1.000000   1.000000
    3      -16.060617    -16.126205   1.000000   1.000000
    4      -16.060617    -16.126205   1.000000   1.000000
    5      -15.904685    -15.968574   1.000000   1.000000
    6      -15.904685    -15.968574   1.000000   1.000000
    7       -8.766549     -8.489914   1.000000   1.000000
    8       -8.155822     -7.927017   1.000000   1.000000
    9       -7.624608     -7.480154   1.000000   1.000000
   10       -7.624608     -7.480153   1.000000   1.000000
   11       -7.546117     -7.300614   1.000000   1.000000
   12       -7.546116     -7.290498   1.000000   1.000000
   13       -7.328695     -7.290498   1.000000   1.000000
   14       -6.929807     -6.396980   1.000000   1.000000
   15       -6.929807     -6.363500   1.000000   1.000000
   16       -6.639006     -6.363500   1.000000   1.000000
   17       -6.410178     -5.936111   1.000000   1.000000
   18       -6.410178     -5.936111   1.000000   1.000000
   19       -5.769830     -5.753454   1.000000   1.000000
   20       -5.442061     -5.345925   1.000000   1.000000
   21       -5.442061     -5.046086   1.000000   1.000000
   22       -5.331877     -5.046086   1.000000   1.000000
   23       -5.294982     -4.594411   1.000000   1.000000
   24       -5.046805     -4.594411   1.000000   1.000000
   25       -5.046805     -2.296246   1.000000   0.000000
   26       -4.892246     -2.282495   1.000000   0.000000
   27       -4.795716     -2.282495   1.000000   0.000000
   28       -4.795716     -2.196633   1.000000   0.000000
   29       -4.358758     -1.995671   1.000000   0.000000
   30       -4.358758     -1.995671   1.000000   0.000000
   31       -3.141619     -1.663850   0.000000   0.000000
   32       -3.141619     -1.663850   0.000000   0.000000
   33       -2.732776     -1.362198   0.000000   0.000000
   34       -2.732776     -1.362198   0.000000   0.000000
   35        0.320495      0.472197   0.000000   0.000000
   36        0.564191      1.042235   0.000000   0.000000
   37        1.025090      1.216718   0.000000   0.000000
   38        1.215220      1.399457   0.000000   0.000000
 
  0.9090909E-01 -0.9639842E-17  0.0000000E+00  0.4958678E-01
    1      -16.994729    -17.016987   1.000000   1.000000
    2      -16.257133    -16.323633   1.000000   1.000000
    3      -16.081939    -16.146378   1.000000   1.000000
    4      -16.066855    -16.132457   1.000000   1.000000
    5      -15.907873    -15.971804   1.000000   1.000000
    6      -15.906772    -15.970508   1.000000   1.000000
    7       -8.754113     -8.482035   1.000000   1.000000
    8       -8.150446     -7.921888   1.000000   1.000000
    9       -7.634861     -7.490057   1.000000   1.000000
   10       -7.590125     -7.454367   1.000000   1.000000
   11       -7.589986     -7.430527   1.000000   1.000000
   12       -7.560092     -7.312379   1.000000   1.000000
   13       -7.265141     -7.091342   1.000000   1.000000
   14       -6.950103     -6.403587   1.000000   1.000000
   15       -6.931078     -6.373614   1.000000   1.000000
   16       -6.564951     -6.315080   1.000000   1.000000
   17       -6.414896     -5.946435   1.000000   1.000000
   18       -6.369988     -5.921641   1.000000   1.000000
   19       -5.783515     -5.726490   1.000000   1.000000
   20       -5.520865     -5.358778   1.000000   1.000000
   21       -5.499817     -5.065015   1.000000   1.000000
   22       -5.283227     -5.033234   1.000000   1.000000
   23       -5.219777     -4.722730   1.000000   1.000000
   24       -5.124189     -4.626458   1.000000   1.000000
   25       -5.061111     -2.328095   1.000000   0.000000
   26       -4.876959     -2.260284   1.000000   0.000000
   27       -4.796986     -2.226871   1.000000   0.000000
   28       -4.788495     -2.185632   1.000000   0.000000
   29       -4.396098     -2.004905   1.000000   0.000000
   30       -4.349639     -2.003971   1.000000   0.000000
   31       -3.140685     -1.659631   0.000000   0.000000
   32       -3.134900     -1.656680   0.000000   0.000000
   33       -2.792202     -1.412164   0.000000   0.000000
   34       -2.744152     -1.375870   0.000000   0.000000
   35        0.399725      0.543005   0.000000   0.000000
   36        0.584624      1.074958   0.000000   0.000000
   37        1.061616      1.226917   0.000000   0.000000
   38        1.335965      1.488702   0.000000   0.000000
 
  0.1818182E+00 -0.1927968E-16  0.0000000E+00  0.4958678E-01
    1      -16.948740    -16.972574   1.000000   1.000000
    2      -16.232461    -16.298895   1.000000   1.000000
    3      -16.142213    -16.203482   1.000000   1.000000
    4      -16.082707    -16.148349   1.000000   1.000000
    5      -15.919169    -15.983210   1.000000   1.000000
    6      -15.913115    -15.976401   1.000000   1.000000
    7       -8.717674     -8.456446   1.000000   1.000000
    8       -8.137599     -7.909122   1.000000   1.000000
    9       -7.662340     -7.565145   1.000000   1.000000
   10       -7.645806     -7.502998   1.000000   1.000000
   11       -7.597034     -7.337300   1.000000   1.000000
   12       -7.468073     -7.300461   1.000000   1.000000
   13       -7.154217     -6.858394   1.000000   1.000000
   14       -6.998478     -6.513676   1.000000   1.000000
   15       -6.936439     -6.400879   1.000000   1.000000
   16       -6.437956     -6.113140   1.000000   1.000000
   17       -6.383039     -5.975645   1.000000   1.000000
   18       -6.262342     -5.892995   1.000000   1.000000
   19       -5.845905     -5.667897   1.000000   1.000000
   20       -5.630933     -5.378584   1.000000   1.000000
   21       -5.566292     -5.141783   1.000000   1.000000
   22       -5.375635     -5.020722   1.000000   1.000000
   23       -5.201089     -5.006024   1.000000   1.000000
   24       -5.100794     -4.703097   1.000000   1.000000
   25       -5.080653     -2.346138   1.000000   0.000000
   26       -4.854348     -2.231936   1.000000   0.000000
   27       -4.799445     -2.206296   1.000000   0.000000
   28       -4.775853     -2.107377   1.000000   0.000000
   29       -4.468762     -2.025202   1.000000   0.000000
   30       -4.335897     -2.019459   1.000000   0.000000
   31       -3.137006     -1.647934   0.000000   0.000000
   32       -3.116192     -1.636337   0.000000   0.000000
   33       -2.915931     -1.516415   0.000000   0.000000
   34       -2.782461     -1.413675   0.000000   0.000000
   35        0.600364      0.728943   0.000000   0.000000
   36        0.625226      1.162926   0.000000   0.000000
   37        1.146155      1.232457   0.000000   0.000000
   38        1.559531      1.593033   0.000000   0.000000
 
  0.2727273E+00 -0.3499279E-16  0.0000000E+00  0.4958678E-01
    1      -16.876290    -16.902633   1.000000   1.000000
    2      -16.232369    -16.289091   1.000000   1.000000
    3      -16.194440    -16.260789   1.000000   1.000000
    4      -16.101908    -16.167602   1.000000   1.000000
    5      -15.941366    -16.005553   1.000000   1.000000
    6      -15.922304    -15.984986   1.000000   1.000000
    7       -8.667648     -8.418571   1.000000   1.000000
    8       -8.116440     -7.886913   1.000000   1.000000
    9       -7.703887     -7.635980   1.000000   1.000000
   10       -7.655382     -7.487864   1.000000   1.000000
   11       -7.564105     -7.306715   1.000000   1.000000
   12       -7.344875     -7.141794   1.000000   1.000000
   13       -7.141121     -6.681782   1.000000   1.000000
   14       -6.962119     -6.612053   1.000000   1.000000
   15       -6.939844     -6.432857   1.000000   1.000000
   16       -6.474059     -6.024314   1.000000   1.000000
   17       -6.222265     -5.879840   1.000000   1.000000
   18       -6.127189     -5.864112   1.000000   1.000000
   19       -5.970778     -5.606026   1.000000   1.000000
   20       -5.705203     -5.491352   1.000000   1.000000
   21       -5.621009     -5.406724   1.000000   1.000000
   22       -5.590439     -5.140467   1.000000   1.000000
   23       -5.204902     -4.977269   1.000000   1.000000
   24       -5.111133     -4.769287   1.000000   1.000000
   25       -4.982412     -2.364675   1.000000   0.000000
   26       -4.832457     -2.286357   1.000000   0.000000
   27       -4.799599     -2.170669   1.000000   0.000000
   28       -4.762272     -2.035220   1.000000   0.000000
   29       -4.533568     -2.030614   1.000000   0.000000
   30       -4.335957     -2.011333   1.000000   0.000000
   31       -3.129508     -1.633892   0.000000   0.000000
   32       -3.091679     -1.609168   0.000000   0.000000
   33       -3.005863     -1.597782   0.000000   0.000000
   34       -2.847284     -1.463792   0.000000   0.000000
   35        0.603637      0.979533   0.000000   0.000000
   36        0.868700      1.154706   0.000000   0.000000
   37        1.265272      1.293738   0.000000   0.000000
   38        1.430739      1.764716   0.000000   0.000000
 
  0.3636364E+00 -0.3855937E-16  0.0000000E+00  0.4958678E-01
    1      -16.785921    -16.815360   1.000000   1.000000
    2      -16.338476    -16.390250   1.000000   1.000000
    3      -16.148226    -16.214572   1.000000   1.000000
    4      -16.118297    -16.183997   1.000000   1.000000
    5      -15.974411    -16.038702   1.000000   1.000000
    6      -15.931179    -15.993322   1.000000   1.000000
    7       -8.627151     -8.387381   1.000000   1.000000
    8       -8.076530     -7.846422   1.000000   1.000000
    9       -7.737129     -7.682204   1.000000   1.000000
   10       -7.624425     -7.415152   1.000000   1.000000
   11       -7.462858     -7.220232   1.000000   1.000000
   12       -7.267083     -6.998614   1.000000   1.000000
   13       -7.235869     -6.875284   1.000000   1.000000
   14       -6.925955     -6.447412   1.000000   1.000000
   15       -6.822558     -6.388021   1.000000   1.000000
   16       -6.559966     -6.125143   1.000000   1.000000
   17       -6.253255     -5.889392   1.000000   1.000000
   18       -6.154759     -5.865017   1.000000   1.000000
   19       -5.996139     -5.614389   1.000000   1.000000
   20       -5.751053     -5.593245   1.000000   1.000000
   21       -5.647198     -5.430326   1.000000   1.000000
   22       -5.560255     -5.199331   1.000000   1.000000
   23       -5.241476     -4.982773   1.000000   1.000000
   24       -5.117677     -4.760893   1.000000   1.000000
   25       -4.997766     -2.391257   1.000000   0.000000
   26       -4.817521     -2.355196   1.000000   0.000000
   27       -4.788480     -2.189982   1.000000   0.000000
   28       -4.690231     -2.013906   1.000000   0.000000
   29       -4.588856     -2.002478   1.000000   0.000000
   30       -4.350100     -1.968277   1.000000   0.000000
   31       -3.117000     -1.653856   0.000000   0.000000
   32       -3.098009     -1.626608   0.000000   0.000000
   33       -2.994653     -1.549094   0.000000   0.000000
   34       -2.923018     -1.505533   0.000000   0.000000
   35        0.478782      0.983899   0.000000   0.000000
   36        1.162687      1.264836   0.000000   0.000000
   37        1.394918      1.446677   0.000000   0.000000
   38        1.397267      1.781542   0.000000   0.000000
 
  0.4545455E+00 -0.8389808E-16  0.0000000E+00  0.4958678E-01
    1      -16.702426    -16.734385   1.000000   1.000000
    2      -16.431173    -16.479333   1.000000   1.000000
    3      -16.127800    -16.193740   1.000000   1.000000
    4      -16.105061    -16.171386   1.000000   1.000000
    5      -16.010042    -16.074179   1.000000   1.000000
    6      -15.936554    -15.998386   1.000000   1.000000
    7       -8.609220     -8.373830   1.000000   1.000000
    8       -8.034847     -7.805740   1.000000   1.000000
    9       -7.755539     -7.706299   1.000000   1.000000
   10       -7.574161     -7.288200   1.000000   1.000000
   11       -7.343181     -7.144122   1.000000   1.000000
   12       -7.323573     -7.071121   1.000000   1.000000
   13       -7.240885     -6.863631   1.000000   1.000000
   14       -6.903342     -6.466481   1.000000   1.000000
   15       -6.703781     -6.330526   1.000000   1.000000
   16       -6.687971     -6.220223   1.000000   1.000000
   17       -6.346903     -5.990520   1.000000   1.000000
   18       -6.304418     -5.903531   1.000000   1.000000
   19       -5.948556     -5.677201   1.000000   1.000000
   20       -5.734963     -5.456704   1.000000   1.000000
   21       -5.566681     -5.385770   1.000000   1.000000
   22       -5.487292     -5.248960   1.000000   1.000000
   23       -5.284184     -5.019480   1.000000   1.000000
   24       -5.118144     -4.717136   1.000000   1.000000
   25       -5.087316     -2.413533   1.000000   0.000000
   26       -4.815266     -2.402629   1.000000   0.000000
   27       -4.765001     -2.212636   1.000000   0.000000
   28       -4.632963     -2.000118   1.000000   0.000000
   29       -4.603216     -1.987089   1.000000   0.000000
   30       -4.372308     -1.948419   1.000000   0.000000
   31       -3.111918     -1.670824   0.000000   0.000000
   32       -3.100823     -1.628088   0.000000   0.000000
   33       -2.981535     -1.524075   0.000000   0.000000
   34       -2.950507     -1.501374   0.000000   0.000000
   35        0.359296      0.853460   0.000000   0.000000
   36        1.393250      1.571815   0.000000   0.000000
   37        1.490063      1.573814   0.000000   0.000000
   38        1.516859      1.629737   0.000000   0.000000
 
  0.9090909E-01  0.9090909E-01  0.0000000E+00  0.4958678E-01
    1      -16.963858    -16.987173   1.000000   1.000000
    2      -16.240531    -16.306986   1.000000   1.000000
    3      -16.121276    -16.183578   1.000000   1.000000
    4      -16.079474    -16.145061   1.000000   1.000000
    5      -15.915427    -15.979386   1.000000   1.000000
    6      -15.910612    -15.974112   1.000000   1.000000
    7       -8.728528     -8.463979   1.000000   1.000000
    8       -8.142221     -7.913877   1.000000   1.000000
    9       -7.658535     -7.536128   1.000000   1.000000
   10       -7.641401     -7.507796   1.000000   1.000000
   11       -7.581051     -7.337439   1.000000   1.000000
   12       -7.503198     -7.335646   1.000000   1.000000
   13       -7.180638     -6.921166   1.000000   1.000000
   14       -6.993844     -6.480293   1.000000   1.000000
   15       -6.927127     -6.389779   1.000000   1.000000
   16       -6.449401     -6.174955   1.000000   1.000000
   17       -6.417041     -5.974173   1.000000   1.000000
   18       -6.297637     -5.892051   1.000000   1.000000
   19       -5.825900     -5.686155   1.000000   1.000000
   20       -5.601358     -5.378911   1.000000   1.000000
   21       -5.553788     -5.094828   1.000000   1.000000
   22       -5.261664     -5.024117   1.000000   1.000000
   23       -5.255171     -4.929101   1.000000   1.000000
   24       -5.128538     -4.687918   1.000000   1.000000
   25       -5.081407     -2.332642   1.000000   0.000000
   26       -4.858326     -2.265303   1.000000   0.000000
   27       -4.789891     -2.163446   1.000000   0.000000
   28       -4.787234     -2.159088   1.000000   0.000000
   29       -4.448453     -2.018836   1.000000   0.000000
   30       -4.337731     -2.015726   1.000000   0.000000
   31       -3.138416     -1.654214   0.000000   0.000000
   32       -3.122315     -1.641003   0.000000   0.000000
   33       -2.889655     -1.487157   0.000000   0.000000
   34       -2.761179     -1.400347   0.000000   0.000000
   35        0.539076      0.670238   0.000000   0.000000
   36        0.615665      1.134516   0.000000   0.000000
   37        1.119214      1.237018   0.000000   0.000000
   38        1.520273      1.558380   0.000000   0.000000
 
  0.1818182E+00  0.9090909E-01  0.0000000E+00  0.9917355E-01
    1      -16.904473    -16.929846   1.000000   1.000000
    2      -16.209161    -16.275536   1.000000   1.000000
    3      -16.193803    -16.252244   1.000000   1.000000
    4      -16.100228    -16.165772   1.000000   1.000000
    5      -15.932048    -15.996127   1.000000   1.000000
    6      -15.918197    -15.981255   1.000000   1.000000
    7       -8.678419     -8.424791   1.000000   1.000000
    8       -8.130788     -7.901840   1.000000   1.000000
    9       -7.684729     -7.601906   1.000000   1.000000
   10       -7.679602     -7.520358   1.000000   1.000000
   11       -7.575828     -7.332051   1.000000   1.000000
   12       -7.382233     -7.188124   1.000000   1.000000
   13       -7.102728     -6.697152   1.000000   1.000000
   14       -7.043742     -6.619275   1.000000   1.000000
   15       -6.904325     -6.413547   1.000000   1.000000
   16       -6.457158     -6.029278   1.000000   1.000000
   17       -6.271986     -5.954948   1.000000   1.000000
   18       -6.183457     -5.854368   1.000000   1.000000
   19       -5.933527     -5.645712   1.000000   1.000000
   20       -5.675781     -5.464487   1.000000   1.000000
   21       -5.589887     -5.225393   1.000000   1.000000
   22       -5.477739     -5.121616   1.000000   1.000000
   23       -5.265409     -4.991856   1.000000   1.000000
   24       -5.093998     -4.778306   1.000000   1.000000
   25       -5.021997     -2.339662   1.000000   0.000000
   26       -4.840234     -2.285691   1.000000   0.000000
   27       -4.796673     -2.149314   1.000000   0.000000
   28       -4.762888     -2.090655   1.000000   0.000000
   29       -4.508569     -2.024929   1.000000   0.000000
   30       -4.331204     -2.016346   1.000000   0.000000
   31       -3.132835     -1.648936   0.000000   0.000000
   32       -3.099593     -1.610803   0.000000   0.000000
   33       -3.002670     -1.568963   0.000000   0.000000
   34       -2.797285     -1.442028   0.000000   0.000000
   35        0.635648      0.882609   0.000000   0.000000
   36        0.764918      1.212508   0.000000   0.000000
   37        1.212205      1.242514   0.000000   0.000000
   38        1.394873      1.696134   0.000000   0.000000
 
  0.2727273E+00  0.9090909E-01  0.0000000E+00  0.9917355E-01
    1      -16.822113    -16.850366   1.000000   1.000000
    2      -16.290547    -16.344159   1.000000   1.000000
    3      -16.166839    -16.233151   1.000000   1.000000
    4      -16.120927    -16.186408   1.000000   1.000000
    5      -15.958959    -16.023241   1.000000   1.000000
    6      -15.927674    -15.990196   1.000000   1.000000
    7       -8.620354     -8.377103   1.000000   1.000000
    8       -8.108003     -7.877630   1.000000   1.000000
    9       -7.716126     -7.647468   1.000000   1.000000
   10       -7.665931     -7.486177   1.000000   1.000000
   11       -7.515967     -7.269190   1.000000   1.000000
   12       -7.285313     -7.043722   1.000000   1.000000
   13       -7.194003     -6.805229   1.000000   1.000000
   14       -6.985275     -6.471923   1.000000   1.000000
   15       -6.809785     -6.417041   1.000000   1.000000
   16       -6.525031     -6.114158   1.000000   1.000000
   17       -6.264811     -5.844021   1.000000   1.000000
   18       -6.084206     -5.817352   1.000000   1.000000
   19       -5.991514     -5.706933   1.000000   1.000000
   20       -5.718040     -5.535504   1.000000   1.000000
   21       -5.651835     -5.365442   1.000000   1.000000
   22       -5.573553     -5.165417   1.000000   1.000000
   23       -5.287669     -4.977556   1.000000   1.000000
   24       -5.104203     -4.819763   1.000000   1.000000
   25       -5.000779     -2.368518   1.000000   0.000000
   26       -4.820721     -2.325857   1.000000   0.000000
   27       -4.776276     -2.166625   1.000000   0.000000
   28       -4.717813     -2.062378   1.000000   0.000000
   29       -4.561742     -2.006423   1.000000   0.000000
   30       -4.340786     -1.980372   1.000000   0.000000
   31       -3.122048     -1.651219   0.000000   0.000000
   32       -3.089489     -1.607022   0.000000   0.000000
   33       -3.039657     -1.567000   0.000000   0.000000
   34       -2.850709     -1.486228   0.000000   0.000000
   35        0.566271      1.083992   0.000000   0.000000
   36        1.026374      1.139790   0.000000   0.000000
   37        1.206816      1.380638   0.000000   0.000000
   38        1.382926      1.657074   0.000000   0.000000
 
  0.3636364E+00  0.9090909E-01  0.0000000E+00  0.9917355E-01
    1      -16.729970    -16.761330   1.000000   1.000000
    2      -16.393757    -16.442786   1.000000   1.000000
    3      -16.135838    -16.201546   1.000000   1.000000
    4      -16.120332    -16.186392   1.000000   1.000000
    5      -15.994114    -16.058490   1.000000   1.000000
    6      -15.935317    -15.997431   1.000000   1.000000
    7       -8.581322     -8.344775   1.000000   1.000000
    8       -8.065756     -7.835799   1.000000   1.000000
    9       -7.738296     -7.677589   1.000000   1.000000
   10       -7.618486     -7.389050   1.000000   1.000000
   11       -7.402012     -7.171055   1.000000   1.000000
   12       -7.304555     -7.009425   1.000000   1.000000
   13       -7.247920     -6.931373   1.000000   1.000000
   14       -6.945084     -6.446946   1.000000   1.000000
   15       -6.752550     -6.311849   1.000000   1.000000
   16       -6.584046     -6.219264   1.000000   1.000000
   17       -6.367017     -5.998032   1.000000   1.000000
   18       -6.134945     -5.855663   1.000000   1.000000
   19       -5.982810     -5.570963   1.000000   1.000000
   20       -5.760953     -5.523225   1.000000   1.000000
   21       -5.583024     -5.402521   1.000000   1.000000
   22       -5.506869     -5.214262   1.000000   1.000000
   23       -5.325031     -5.002407   1.000000   1.000000
   24       -5.115063     -4.778253   1.000000   1.000000
   25       -5.085622     -2.401209   1.000000   0.000000
   26       -4.789542     -2.371500   1.000000   0.000000
   27       -4.764553     -2.198583   1.000000   0.000000
   28       -4.633616     -2.043475   1.000000   0.000000
   29       -4.603805     -1.984238   1.000000   0.000000
   30       -4.362867     -1.956396   1.000000   0.000000
   31       -3.116358     -1.658507   0.000000   0.000000
   32       -3.095650     -1.612429   0.000000   0.000000
   33       -3.010508     -1.525412   0.000000   0.000000
   34       -2.893164     -1.504441   0.000000   0.000000
   35        0.427137      0.919082   0.000000   0.000000
   36        1.156099      1.400042   0.000000   0.000000
   37        1.331803      1.516359   0.000000   0.000000
   38        1.517430      1.623118   0.000000   0.000000
 
  0.4545455E+00  0.9090909E-01  0.0000000E+00  0.4958678E-01
    1      -16.675668    -16.708518   1.000000   1.000000
    2      -16.452210    -16.499199   1.000000   1.000000
    3      -16.141045    -16.206618   1.000000   1.000000
    4      -16.092176    -16.158601   1.000000   1.000000
    5      -16.018330    -16.082503   1.000000   1.000000
    6      -15.938215    -16.000180   1.000000   1.000000
    7       -8.569568     -8.335081   1.000000   1.000000
    8       -8.040356     -7.811634   1.000000   1.000000
    9       -7.746443     -7.688386   1.000000   1.000000
   10       -7.581072     -7.274712   1.000000   1.000000
   11       -7.368132     -7.171739   1.000000   1.000000
   12       -7.319830     -7.113978   1.000000   1.000000
   13       -7.239290     -6.845581   1.000000   1.000000
   14       -6.918467     -6.542140   1.000000   1.000000
   15       -6.863970     -6.369002   1.000000   1.000000
   16       -6.484634     -6.118676   1.000000   1.000000
   17       -6.405867     -6.037353   1.000000   1.000000
   18       -6.245963     -5.866701   1.000000   1.000000
   19       -5.962954     -5.634429   1.000000   1.000000
   20       -5.758336     -5.475527   1.000000   1.000000
   21       -5.525390     -5.334854   1.000000   1.000000
   22       -5.453155     -5.260471   1.000000   1.000000
   23       -5.351654     -5.021180   1.000000   1.000000
   24       -5.149175     -4.749736   1.000000   1.000000
   25       -5.118377     -2.410578   1.000000   0.000000
   26       -4.783413     -2.396704   1.000000   0.000000
   27       -4.749194     -2.211975   1.000000   0.000000
   28       -4.642615     -2.037044   1.000000   0.000000
   29       -4.571116     -1.972134   1.000000   0.000000
   30       -4.380371     -1.954505   1.000000   0.000000
   31       -3.120973     -1.661577   0.000000   0.000000
   32       -3.083885     -1.612620   0.000000   0.000000
   33       -3.009589     -1.528457   0.000000   0.000000
   34       -2.898300     -1.483295   0.000000   0.000000
   35        0.359839      0.847895   0.000000   0.000000
   36        1.161229      1.486064   0.000000   0.000000
   37        1.488372      1.596721   0.000000   0.000000
   38        1.564598      1.734417   0.000000   0.000000
 
  0.1818182E+00  0.1818182E+00  0.0000000E+00  0.4958678E-01
    1      -16.834600    -16.862453   1.000000   1.000000
    2      -16.268854    -16.323072   1.000000   1.000000
    3      -16.173387    -16.239694   1.000000   1.000000
    4      -16.127666    -16.192984   1.000000   1.000000
    5      -15.952978    -16.017240   1.000000   1.000000
    6      -15.926107    -15.988892   1.000000   1.000000
    7       -8.606284     -8.361114   1.000000   1.000000
    8       -8.128684     -7.898341   1.000000   1.000000
    9       -7.700496     -7.610070   1.000000   1.000000
   10       -7.695610     -7.540588   1.000000   1.000000
   11       -7.536271     -7.294421   1.000000   1.000000
   12       -7.290705     -7.052906   1.000000   1.000000
   13       -7.174802     -6.785615   1.000000   1.000000
   14       -7.020098     -6.491723   1.000000   1.000000
   15       -6.778695     -6.398887   1.000000   1.000000
   16       -6.522559     -6.136058   1.000000   1.000000
   17       -6.278713     -5.825169   1.000000   1.000000
   18       -6.112106     -5.802527   1.000000   1.000000
   19       -5.962430     -5.749539   1.000000   1.000000
   20       -5.679876     -5.546443   1.000000   1.000000
   21       -5.616527     -5.206583   1.000000   1.000000
   22       -5.542099     -5.179826   1.000000   1.000000
   23       -5.378243     -4.982855   1.000000   1.000000
   24       -5.092814     -4.884554   1.000000   1.000000
   25       -5.017315     -2.346629   1.000000   0.000000
   26       -4.836682     -2.320439   1.000000   0.000000
   27       -4.739391     -2.126942   1.000000   0.000000
   28       -4.733018     -2.116340   1.000000   0.000000
   29       -4.548417     -2.019462   1.000000   0.000000
   30       -4.335455     -1.980115   1.000000   0.000000
   31       -3.123381     -1.655617   0.000000   0.000000
   32       -3.075282     -1.590110   0.000000   0.000000
   33       -3.074833     -1.571516   0.000000   0.000000
   34       -2.807210     -1.472649   0.000000   0.000000
   35        0.625374      1.088297   0.000000   0.000000
   36        0.962627      1.158642   0.000000   0.000000
   37        1.095462      1.348306   0.000000   0.000000
   38        1.361485      1.536942   0.000000   0.000000
 
  0.2727273E+00  0.1818182E+00  0.0000000E+00  0.9917355E-01
    1      -16.746548    -16.777574   1.000000   1.000000
    2      -16.361649    -16.411061   1.000000   1.000000
    3      -16.152516    -16.217837   1.000000   1.000000
    4      -16.129872    -16.195901   1.000000   1.000000
    5      -15.981496    -16.046068   1.000000   1.000000
    6      -15.935266    -15.997701   1.000000   1.000000
    7       -8.522932     -8.285098   1.000000   1.000000
    8       -8.117240     -7.885902   1.000000   1.000000
    9       -7.710572     -7.615293   1.000000   1.000000
   10       -7.675014     -7.504871   1.000000   1.000000
   11       -7.456581     -7.208934   1.000000   1.000000
   12       -7.298110     -6.986006   1.000000   1.000000
   13       -7.251586     -6.962790   1.000000   1.000000
   14       -6.983073     -6.415601   1.000000   1.000000
   15       -6.714983     -6.338746   1.000000   1.000000
   16       -6.563802     -6.214064   1.000000   1.000000
   17       -6.370999     -6.017975   1.000000   1.000000
   18       -6.064871     -5.780582   1.000000   1.000000
   19       -5.914884     -5.621174   1.000000   1.000000
   20       -5.746997     -5.461542   1.000000   1.000000
   21       -5.623761     -5.306805   1.000000   1.000000
   22       -5.519102     -5.191329   1.000000   1.000000
   23       -5.409616     -4.985813   1.000000   1.000000
   24       -5.114757     -4.905972   1.000000   1.000000
   25       -5.104892     -2.387215   1.000000   0.000000
   26       -4.794630     -2.326679   1.000000   0.000000
   27       -4.715851     -2.170325   1.000000   0.000000
   28       -4.651411     -2.108656   1.000000   0.000000
   29       -4.579739     -2.003119   1.000000   0.000000
   30       -4.355450     -1.958827   1.000000   0.000000
   31       -3.119893     -1.645416   0.000000   0.000000
   32       -3.086602     -1.591127   0.000000   0.000000
   33       -3.044157     -1.536565   0.000000   0.000000
   34       -2.820725     -1.483301   0.000000   0.000000
   35        0.539198      1.031692   0.000000   0.000000
   36        0.892984      1.253992   0.000000   0.000000
   37        1.219009      1.392019   0.000000   0.000000
   38        1.495709      1.549700   0.000000   0.000000
 
  0.3636364E+00  0.1818182E+00  0.0000000E+00  0.9917355E-01
    1      -16.661274    -16.695218   1.000000   1.000000
    2      -16.450195    -16.495733   1.000000   1.000000
    3      -16.166447    -16.231574   1.000000   1.000000
    4      -16.088808    -16.154945   1.000000   1.000000