 running on   32 total cores
 distrk:  each k-point on    8 cores,    4 groups
 distr:  one band on    4 cores,    2 groups
 using from now: INCAR     
 vasp.5.4.4.18Apr17-6-g9f103f2a35 (build May 10 2017 09:44:01) complex          
  
 POSCAR found type information on POSCAR  Cr I 
 POSCAR found :  2 types and       8 ions
 scaLAPACK will be used

 ----------------------------------------------------------------------------- 
|                                                                             |
|           W    W    AA    RRRRR   N    N  II  N    N   GGGG   !!!           |
|           W    W   A  A   R    R  NN   N  II  NN   N  G    G  !!!           |
|           W    W  A    A  R    R  N N  N  II  N N  N  G       !!!           |
|           W WW W  AAAAAA  RRRRR   N  N N  II  N  N N  G  GGG   !            |
|           WW  WW  A    A  R   R   N   NN  II  N   NN  G    G                |
|           W    W  A    A  R    R  N    N  II  N    N   GGGG   !!!           |
|                                                                             |
|      You have enabled k-point parallelism (KPAR>1).                         |
|      This developmental code was originally  written by Paul Kent at ORNL,  |
|      and carefully double checked in Vienna.                                |
|      GW as well as linear response parallelism added by Martijn Marsman     |
|      and Georg Kresse.                                                      |
|      Carefully verify results versus KPAR=1.                                |
|      Report problems to Paul Kent and Vienna.                               |
|                                                                             |
 ----------------------------------------------------------------------------- 

 LDA part: xc-table for Pade appr. of Perdew
 POSCAR, INCAR and KPOINTS ok, starting setup
 FFT: planning ...
 WAVECAR not read
 entering main loop
       N       E                     dE             d eps       ncg     rms          rms(c)
DAV:   1     0.366445709296E+03    0.36645E+03   -0.10584E+04  3504   0.594E+02
DAV:   2     0.425442226838E+02   -0.32390E+03   -0.30778E+03  5032   0.189E+02
DAV:   3    -0.291171225325E+02   -0.71661E+02   -0.70711E+02  4192   0.920E+01
DAV:   4    -0.343001200609E+02   -0.51830E+01   -0.51628E+01  5000   0.395E+01
DAV:   5    -0.343763209176E+02   -0.76201E-01   -0.76082E-01  5000   0.603E+00    0.181E+01
DAV:   6    -0.332411704183E+02    0.11352E+01   -0.32709E+01  4608   0.600E+01    0.315E+01
DAV:   7    -0.273487134419E+02    0.58925E+01   -0.29447E+01  4400   0.860E+01    0.125E+01
DAV:   8    -0.260027119054E+02    0.13460E+01   -0.54974E+00  3776   0.105E+01    0.584E+00
DAV:   9    -0.251471920319E+02    0.85552E+00   -0.92618E-01  4768   0.121E+01    0.334E+00
DAV:  10    -0.260666688456E+02   -0.91948E+00   -0.22965E-01  3684   0.284E+00    0.241E+00
DAV:  11    -0.268818522152E+02   -0.81518E+00   -0.24506E-01  3732   0.286E+00    0.186E+00
DAV:  12    -0.279667929166E+02   -0.10849E+01   -0.26508E-01  3432   0.207E+00    0.159E+00
DAV:  13    -0.295689631970E+02   -0.16022E+01   -0.58112E-01  3384   0.309E+00    0.127E+00
DAV:  14    -0.308199741753E+02   -0.12510E+01   -0.52054E-01  3580   0.253E+00    0.105E+00
DAV:  15    -0.311859743046E+02   -0.36600E+00   -0.17038E-01  3448   0.170E+00    0.828E-01
DAV:  16    -0.314366150507E+02   -0.25064E+00   -0.73733E-02  3620   0.130E+00    0.674E-01
DAV:  17    -0.315390569735E+02   -0.10244E+00   -0.46412E-02  3456   0.931E-01    0.613E-01
DAV:  18    -0.315417231496E+02   -0.26662E-02   -0.54838E-02  3296   0.988E-01    0.491E-01
DAV:  19    -0.315977632070E+02   -0.56040E-01   -0.29223E-02  3672   0.745E-01    0.408E-01
DAV:  20    -0.317639788868E+02   -0.16622E+00   -0.26012E-02  3592   0.657E-01    0.339E-01
DAV:  21    -0.318478960999E+02   -0.83917E-01   -0.17396E-02  3812   0.599E-01    0.266E-01
DAV:  22    -0.318580610752E+02   -0.10165E-01   -0.10115E-02  3620   0.471E-01    0.202E-01
DAV:  23    -0.318671803033E+02   -0.91192E-02   -0.74286E-03  3512   0.433E-01    0.160E-01
DAV:  24    -0.318881740180E+02   -0.20994E-01   -0.10287E-02  3592   0.530E-01    0.160E-01
DAV:  25    -0.318925759862E+02   -0.44020E-02   -0.57022E-03  3668   0.400E-01    0.154E-01
DAV:  26    -0.318921969903E+02    0.37900E-03   -0.46168E-03  3516   0.381E-01    0.155E-01
DAV:  27    -0.318922109734E+02   -0.13983E-04   -0.33004E-03  3444   0.339E-01    0.117E-01
DAV:  28    -0.319065951868E+02   -0.14384E-01   -0.10810E-02  3464   0.595E-01    0.225E-01
DAV:  29    -0.319139382962E+02   -0.73431E-02   -0.66883E-03  3476   0.497E-01    0.143E-01
DAV:  30    -0.319372940085E+02   -0.23356E-01   -0.11707E-02  3388   0.622E-01    0.156E-01
DAV:  31    -0.319467189548E+02   -0.94249E-02   -0.12847E-02  3480   0.672E-01    0.145E-01
DAV:  32    -0.319653552350E+02   -0.18636E-01   -0.12754E-02  3352   0.676E-01    0.155E-01
DAV:  33    -0.319840374075E+02   -0.18682E-01   -0.13105E-02  3468   0.688E-01    0.153E-01
DAV:  34    -0.319939002282E+02   -0.98628E-02   -0.79832E-03  3436   0.556E-01    0.102E-01
DAV:  35    -0.320007162280E+02   -0.68160E-02   -0.39095E-03  3452   0.386E-01    0.102E-01
DAV:  36    -0.320136703410E+02   -0.12954E-01   -0.40036E-03  3420   0.368E-01    0.124E-01
DAV:  37    -0.320165115489E+02   -0.28412E-02   -0.12180E-03  3424   0.213E-01    0.155E-01
DAV:  38    -0.320164622117E+02    0.49337E-04   -0.98821E-05  3532   0.620E-02    0.165E-01
DAV:  39    -0.320226526547E+02   -0.61904E-02   -0.16289E-03  3360   0.221E-01    0.220E-01
DAV:  40    -0.320238504356E+02   -0.11978E-02   -0.14960E-04  4868   0.753E-02    0.247E-01
DAV:  41    -0.320248928431E+02   -0.10424E-02   -0.11965E-04  3368   0.638E-02    0.265E-01
DAV:  42    -0.320267352217E+02   -0.18424E-02   -0.13831E-04  3288   0.660E-02    0.251E-01
DAV:  43    -0.320268011301E+02   -0.65908E-04   -0.11351E-05  4904   0.223E-02    0.249E-01
DAV:  44    -0.320269066855E+02   -0.10556E-03   -0.79549E-06  3364   0.166E-02    0.251E-01
DAV:  45    -0.320276542968E+02   -0.74761E-03   -0.79899E-05  3284   0.502E-02    0.274E-01
DAV:  46    -0.320274460824E+02    0.20821E-03   -0.53028E-05  4468   0.520E-02    0.312E-01
DAV:  47    -0.320274763969E+02   -0.30314E-04   -0.39349E-06  3400   0.123E-02    0.311E-01
DAV:  48    -0.320281883217E+02   -0.71192E-03   -0.34124E-05  3440   0.341E-02    0.294E-01
DAV:  49    -0.320365598612E+02   -0.83715E-02   -0.18285E-03  3428   0.222E-01    0.182E-01
DAV:  50    -0.320390445074E+02   -0.24846E-02   -0.70622E-04  3328   0.145E-01    0.114E-01
DAV:  51    -0.320396476348E+02   -0.60313E-03   -0.71580E-04  3300   0.127E-01    0.980E-02
DAV:  52    -0.320405901707E+02   -0.94254E-03   -0.91535E-04  3496   0.140E-01    0.837E-02
DAV:  53    -0.320413900474E+02   -0.79988E-03   -0.51921E-04  3576   0.104E-01    0.814E-02
DAV:  54    -0.320428135154E+02   -0.14235E-02   -0.65054E-04  3404   0.123E-01    0.805E-02
DAV:  55    -0.320440128534E+02   -0.11993E-02   -0.66283E-04  3352   0.125E-01    0.733E-02
DAV:  56    -0.320450254138E+02   -0.10126E-02   -0.44698E-04  3500   0.105E-01    0.664E-02
DAV:  57    -0.320454740417E+02   -0.44863E-03   -0.12371E-04  3536   0.572E-02    0.487E-02
DAV:  58    -0.320457900176E+02   -0.31598E-03   -0.64022E-05  3504   0.385E-02    0.395E-02
DAV:  59    -0.320459309403E+02   -0.14092E-03   -0.21840E-04  3632   0.631E-02    0.317E-02
DAV:  60    -0.320461071820E+02   -0.17624E-03   -0.23227E-04  3472   0.675E-02
   1 F= -.32046107E+02 E0= -.32046107E+02  d E =-.320461E+02  mag=    -0.0000    -0.0000     6.0504
 curvature:   0.00 expect dE= 0.000E+00 dE for cont linesearch  0.000E+00
 trial: gam= 0.00000 g(F)=  0.325E-02 g(S)=  0.000E+00 ort = 0.000E+00 (trialstep = 0.100E+01)
 search vector abs. value=  0.325E-02
 bond charge predicted
       N       E                     dE             d eps       ncg     rms          rms(c)
DAV:   1    -0.320494177290E+02   -0.34868E-02   -0.51827E-03  3436   0.243E-01    0.421E-02
DAV:   2    -0.320486030476E+02    0.81468E-03   -0.81444E-04  3720   0.154E-01    0.146E-01
DAV:   3    -0.320493103251E+02   -0.70728E-03   -0.11119E-03  3484   0.144E-01    0.431E-02
DAV:   4    -0.320495324997E+02   -0.22217E-03   -0.35121E-04  3452   0.928E-02    0.281E-02
DAV:   5    -0.320496149946E+02   -0.82495E-04   -0.11364E-04  3464   0.555E-02    0.211E-02
DAV:   6    -0.320495926767E+02    0.22318E-04   -0.21401E-05  3496   0.233E-02    0.154E-02
DAV:   7    -0.320496314014E+02   -0.38725E-04   -0.25715E-05  3572   0.270E-02    0.123E-02
DAV:   8    -0.320495924273E+02    0.38974E-04   -0.62655E-05  3520   0.389E-02    0.120E-02
DAV:   9    -0.320496083215E+02   -0.15894E-04   -0.51051E-05  3500   0.339E-02    0.958E-03
DAV:  10    -0.320496470718E+02   -0.38750E-04   -0.20017E-05  3624   0.230E-02    0.629E-03
DAV:  11    -0.320496531239E+02   -0.60521E-05   -0.31231E-05  3512   0.269E-02    0.438E-03
DAV:  12    -0.320496588623E+02   -0.57384E-05   -0.24559E-05  3464   0.243E-02    0.495E-03
DAV:  13    -0.320496579504E+02    0.91197E-06   -0.13321E-05  3460   0.184E-02    0.674E-03
DAV:  14    -0.320496592892E+02   -0.13389E-05   -0.86622E-06  3632   0.147E-02    0.655E-03
DAV:  15    -0.320496588018E+02    0.48749E-06   -0.34599E-06  3332   0.893E-03
   2 F= -.32049659E+02 E0= -.32049659E+02  d E =-.355162E-02  mag=    -0.0000    -0.0000     6.0489
 ZBRENT: can't locate minimum, use default step
 trial-energy change:   -0.003552  1 .order   -0.003243   -0.003254   -0.003231
 step:   4.0000(harm=145.1020)  dis= 0.00409  next Energy=   -32.282181 (dE=-0.236E+00)
 bond charge predicted
       N       E                     dE             d eps       ncg     rms          rms(c)
DAV:   1    -0.320590426169E+02   -0.93833E-02   -0.45266E-02  3528   0.706E-01    0.121E-01
DAV:   2    -0.320586943650E+02    0.34825E-03   -0.24252E-03  4064   0.289E-01    0.263E-02
DAV:   3    -0.320590935732E+02   -0.39921E-03   -0.73003E-04  3576   0.131E-01    0.194E-02
DAV:   4    -0.320591330974E+02   -0.39524E-04   -0.46822E-04  3464   0.971E-02    0.164E-02
DAV:   5    -0.320590583923E+02    0.74705E-04   -0.11100E-04  3532   0.485E-02    0.167E-02
DAV:   6    -0.320590621526E+02   -0.37603E-05   -0.48164E-05  3580   0.343E-02    0.125E-02
DAV:   7    -0.320590489541E+02    0.13199E-04   -0.58937E-05  3516   0.394E-02    0.802E-03
DAV:   8    -0.320590666068E+02   -0.17653E-04   -0.60559E-05  3608   0.399E-02    0.697E-03
DAV:   9    -0.320590708725E+02   -0.42657E-05   -0.58662E-05  3472   0.375E-02    0.372E-03
DAV:  10    -0.320590974490E+02   -0.26576E-04   -0.12871E-05  3576   0.185E-02    0.223E-03
DAV:  11    -0.320591352708E+02   -0.37822E-04   -0.19297E-05  3452   0.214E-02    0.197E-03
DAV:  12    -0.320591667550E+02   -0.31484E-04   -0.17374E-05  3464   0.206E-02    0.175E-03
DAV:  13    -0.320592107539E+02   -0.43999E-04   -0.57793E-06  3504   0.122E-02    0.127E-03
DAV:  14    -0.320592232278E+02   -0.12474E-04   -0.16435E-06  3112   0.666E-03    0.669E-04
DAV:  15    -0.320592458926E+02   -0.22665E-04   -0.19704E-06  2976   0.693E-03    0.715E-04
DAV:  16    -0.320592722298E+02   -0.26337E-04   -0.20842E-06  3056   0.706E-03    0.636E-04
DAV:  17    -0.320592845434E+02   -0.12314E-04   -0.10583E-06  3016   0.548E-03    0.400E-04
DAV:  18    -0.320592873929E+02   -0.28495E-05   -0.82358E-07  2788   0.487E-03    0.269E-04
DAV:  19    -0.320592871972E+02    0.19574E-06   -0.35790E-07  2340   0.315E-03
   3 F= -.32059287E+02 E0= -.32059287E+02  d E =-.131800E-01  mag=    -0.0000     0.0000     6.0477
 curvature:  -2.99 expect dE=-0.920E-02 dE for cont linesearch -0.920E-02
 ZBRENT: increasing intervall
 opt :  10.0000  next Energy=   -32.077877 (dE=-0.318E-01)
 bond charge predicted
       N       E                     dE             d eps       ncg     rms          rms(c)
DAV:   1    -0.320770218984E+02   -0.17735E-01   -0.18099E-01  3480   0.141E+00    0.242E-01
DAV:   2    -0.320778503280E+02   -0.82843E-03   -0.88789E-03  4260   0.560E-01    0.170E-02
DAV:   3    -0.320778937126E+02   -0.43385E-04   -0.15478E-04  3836   0.802E-02    0.595E-03
DAV:   4    -0.320778871402E+02    0.65724E-05   -0.38161E-05  3620   0.339E-02    0.362E-03
DAV:   5    -0.320778849493E+02    0.21909E-05   -0.16729E-05  3472   0.231E-02    0.210E-03
DAV:   6    -0.320778791766E+02    0.57727E-05   -0.14727E-05  3584   0.210E-02    0.197E-03
DAV:   7    -0.320778810234E+02   -0.18468E-05   -0.82610E-06  3464   0.138E-02    0.178E-03
DAV:   8    -0.320778791939E+02    0.18294E-05   -0.11673E-06  2700   0.619E-03    0.172E-03
DAV:   9    -0.320778803318E+02   -0.11379E-05   -0.12904E-06  2716   0.611E-03    0.161E-03
DAV:  10    -0.320778821047E+02   -0.17729E-05   -0.31992E-07  2144   0.337E-03    0.155E-03
DAV:  11    -0.320778803258E+02    0.17789E-05   -0.36710E-07  2220   0.331E-03    0.147E-03
DAV:  12    -0.320778809707E+02   -0.64493E-06   -0.60248E-07  2544   0.403E-03
   4 F= -.32077881E+02 E0= -.32077881E+02  d E =-.317738E-01  mag=     0.0000     0.0000     6.0457
 curvature:  -6.04 expect dE=-0.171E-01 dE for cont linesearch -0.171E-01
 ZBRENT: increasing intervall
 opt :  22.0000  next Energy=   -32.112650 (dE=-0.665E-01)
 bond charge predicted
       N       E                     dE             d eps       ncg     rms          rms(c)
DAV:   1    -0.321092381396E+02   -0.31358E-01   -0.72396E-01  3444   0.283E+00    0.487E-01
DAV:   2    -0.321124546046E+02   -0.32165E-02   -0.35553E-02  4280   0.112E+00    0.321E-02
DAV:   3    -0.321125535208E+02   -0.98916E-04   -0.62700E-04  3784   0.163E-01    0.952E-03
DAV:   4    -0.321125867483E+02   -0.33227E-04   -0.10612E-04  3584   0.524E-02    0.680E-03
DAV:   5    -0.321125601581E+02    0.26590E-04   -0.50270E-05  3512   0.334E-02    0.633E-03
DAV:   6    -0.321125472604E+02    0.12898E-04   -0.15397E-05  3536   0.190E-02    0.567E-03
DAV:   7    -0.321125355331E+02    0.11727E-04   -0.71021E-06  3572   0.138E-02    0.514E-03
DAV:   8    -0.321125423694E+02   -0.68363E-05   -0.73173E-06  3524   0.139E-02    0.467E-03
DAV:   9    -0.321125471952E+02   -0.48258E-05   -0.25267E-06  3560   0.829E-03    0.439E-03
DAV:  10    -0.321125504637E+02   -0.32685E-05   -0.36665E-06  3396   0.917E-03    0.387E-03
DAV:  11    -0.321125514142E+02   -0.95048E-06   -0.15372E-06  2692   0.618E-03
   5 F= -.32112551E+02 E0= -.32112551E+02  d E =-.664442E-01  mag=     0.0000     0.0000     6.0425
 curvature: -12.31 expect dE=-0.290E-01 dE for cont linesearch -0.289E-01
 ZBRENT: increasing intervall
 opt :  46.0000  next Energy=   -32.172444 (dE=-0.126E+00)
 bond charge predicted
       N       E                     dE             d eps       ncg     rms          rms(c)
DAV:   1    -0.321589095956E+02   -0.46359E-01   -0.28954E+00  3464   0.565E+00    0.986E-01
DAV:   2    -0.321718585885E+02   -0.12949E-01   -0.14259E-01  4256   0.224E+00    0.426E-02
DAV:   3    -0.321721203253E+02   -0.26174E-03   -0.24543E-03  3748   0.321E-01    0.289E-02
DAV:   4    -0.321722312758E+02   -0.11095E-03   -0.44599E-04  3544   0.111E-01    0.153E-02
DAV:   5    -0.321722735954E+02   -0.42320E-04   -0.12710E-04  3696   0.581E-02    0.947E-03
DAV:   6    -0.321722524537E+02    0.21142E-04   -0.31800E-05  3424   0.301E-02    0.771E-03
DAV:   7    -0.321722663385E+02   -0.13885E-04   -0.23801E-05  3596   0.253E-02    0.682E-03
DAV:   8    -0.321723120747E+02   -0.45736E-04   -0.30502E-05  3480   0.275E-02    0.498E-03
DAV:   9    -0.321723229874E+02   -0.10913E-04   -0.25577E-05  3452   0.256E-02    0.394E-03
DAV:  10    -0.321723595109E+02   -0.36523E-04   -0.32714E-05  3628   0.260E-02    0.351E-03
DAV:  11    -0.321723926257E+02   -0.33115E-04   -0.10610E-05  3556   0.161E-02    0.278E-03
DAV:  12    -0.321724249562E+02   -0.32330E-04   -0.49364E-06  3440   0.117E-02    0.225E-03
DAV:  13    -0.321724540464E+02   -0.29090E-04   -0.31317E-06  3492   0.921E-03    0.181E-03
DAV:  14    -0.321724684469E+02   -0.14400E-04   -0.10095E-06  2564   0.565E-03    0.168E-03
DAV:  15    -0.321724985237E+02   -0.30077E-04   -0.10393E-06  2524   0.538E-03    0.160E-03
DAV:  16    -0.321725200929E+02   -0.21569E-04   -0.72410E-07  2288   0.467E-03    0.127E-03
DAV:  17    -0.321725394754E+02   -0.19383E-04   -0.47856E-07  2168   0.362E-03    0.102E-03
DAV:  18    -0.321725525397E+02   -0.13064E-04   -0.38403E-07  2212   0.341E-03    0.775E-04
DAV:  19    -0.321725708885E+02   -0.18349E-04   -0.48528E-07  2312   0.381E-03    0.685E-04
DAV:  20    -0.321725882179E+02   -0.17329E-04   -0.74460E-07  2472   0.460E-03    0.783E-04
DAV:  21    -0.321726020218E+02   -0.13804E-04   -0.49416E-07  2280   0.380E-03    0.827E-04
DAV:  22    -0.321726239183E+02   -0.21896E-04   -0.36941E-07  2176   0.317E-03    0.827E-04
DAV:  23    -0.321726518664E+02   -0.27948E-04   -0.56861E-07  2276   0.394E-03    0.107E-03
DAV:  24    -0.321726616989E+02   -0.98325E-05   -0.49773E-07  2240   0.379E-03    0.104E-03
DAV:  25    -0.321726812505E+02   -0.19552E-04   -0.42566E-07  2112   0.341E-03    0.108E-03
DAV:  26    -0.321726938588E+02   -0.12608E-04   -0.19571E-07  2228   0.244E-03    0.887E-04
DAV:  27    -0.321727003620E+02   -0.65031E-05   -0.92194E-08  2192   0.193E-03    0.812E-04
DAV:  28    -0.321727014617E+02   -0.10997E-05   -0.27274E-08  2284   0.120E-03    0.674E-04
DAV:  29    -0.321726993443E+02    0.21174E-05   -0.10730E-07  2100   0.183E-03    0.434E-04
DAV:  30    -0.321727020757E+02   -0.27314E-05   -0.86637E-08  2136   0.160E-03    0.325E-04
DAV:  31    -0.321727031335E+02   -0.10578E-05   -0.72280E-08  2180   0.149E-03    0.370E-04
DAV:  32    -0.321727039193E+02   -0.78576E-06   -0.48061E-08  2264   0.122E-03
   6 F= -.32172704E+02 E0= -.32172704E+02  d E =-.126597E+00  mag=     0.0000     0.0000     6.0412
 curvature: -25.52 expect dE=-0.402E-01 dE for cont linesearch -0.393E-01
 ZBRENT: increasing intervall
 opt :  94.0000  next Energy=   -32.254818 (dE=-0.209E+00)
 bond charge predicted
       N       E                     dE             d eps       ncg     rms          rms(c)
DAV:   1    -0.322004671323E+02   -0.27764E-01   -0.11576E+01  3444   0.113E+01    0.204E+00
DAV:   2    -0.322527964485E+02   -0.52329E-01   -0.58609E-01  4320   0.449E+00    0.278E-01
DAV:   3    -0.322470949165E+02    0.57015E-02   -0.13300E-02  3676   0.741E-01    0.120E-01
DAV:   4    -0.322502251665E+02   -0.31303E-02   -0.30167E-03  3456   0.290E-01    0.865E-02
DAV:   5    -0.322520480279E+02   -0.18229E-02   -0.63700E-04  3448   0.136E-01    0.557E-02
DAV:   6    -0.322530202971E+02   -0.97227E-03   -0.36958E-04  3488   0.942E-02    0.313E-02
DAV:   7    -0.322534525399E+02   -0.43224E-03   -0.24739E-04  3556   0.806E-02    0.196E-02
DAV:   8    -0.322540551337E+02   -0.60259E-03   -0.45224E-04  3472   0.101E-01    0.164E-02
DAV:   9    -0.322541936424E+02   -0.13851E-03   -0.25901E-04  3484   0.786E-02    0.140E-02
DAV:  10    -0.322544385118E+02   -0.24487E-03   -0.34212E-05  3488   0.310E-02    0.109E-02
DAV:  11    -0.322544714218E+02   -0.32910E-04   -0.46727E-05  3560   0.346E-02    0.678E-03
DAV:  12    -0.322544909620E+02   -0.19540E-04   -0.47352E-05  3552   0.343E-02    0.443E-03
DAV:  13    -0.322544805756E+02    0.10386E-04   -0.39519E-05  3520   0.341E-02    0.485E-03
DAV:  14    -0.322544902176E+02   -0.96420E-05   -0.36820E-05  3560   0.308E-02    0.326E-03
DAV:  15    -0.322544959589E+02   -0.57413E-05   -0.15161E-05  3452   0.183E-02    0.252E-03
DAV:  16    -0.322545064048E+02   -0.10446E-04   -0.79585E-06  3380   0.139E-02    0.166E-03
DAV:  17    -0.322545109008E+02   -0.44960E-05   -0.59579E-06  3412   0.117E-02    0.153E-03
DAV:  18    -0.322545153227E+02   -0.44219E-05   -0.28910E-06  3136   0.765E-03    0.992E-04
DAV:  19    -0.322545229976E+02   -0.76749E-05   -0.38733E-06  3252   0.958E-03    0.637E-04
DAV:  20    -0.322545282862E+02   -0.52886E-05   -0.11589E-06  2600   0.557E-03    0.394E-04
DAV:  21    -0.322545318606E+02   -0.35744E-05   -0.51652E-07  2172   0.379E-03    0.419E-04
DAV:  22    -0.322545353587E+02   -0.34981E-05   -0.25473E-07  2184   0.270E-03    0.349E-04
DAV:  23    -0.322545358227E+02   -0.46399E-06   -0.13638E-07  2124   0.202E-03
   7 F= -.32254536E+02 E0= -.32254536E+02  d E =-.208429E+00  mag=     0.0000     0.0000     6.0355
 curvature: -53.39 expect dE=-0.339E-01 dE for cont linesearch -0.236E-01
 ZBRENT: increasing intervall
 opt : 190.0000  next Energy=   -32.269978 (dE=-0.224E+00)
 bond charge predicted
       N       E                     dE             d eps       ncg     rms          rms(c)
DAV:   1    -0.320434375789E+02    0.21110E+00   -0.45957E+01  3388   0.226E+01    0.448E+00
DAV:   2    -0.322163856368E+02   -0.17295E+00   -0.24244E+00  4200   0.897E+00    0.723E-01
DAV:   3    -0.322596451704E+02   -0.43260E-01   -0.53401E-02  3832   0.149E+00    0.359E-01
DAV:   4    -0.322659230666E+02   -0.62779E-02   -0.94698E-03  3584   0.548E-01    0.251E-01
DAV:   5    -0.322671035315E+02   -0.11805E-02   -0.27291E-03  3676   0.295E-01    0.157E-01
DAV:   6    -0.322666985835E+02    0.40495E-03   -0.28162E-03  3488   0.299E-01    0.171E-01
DAV:   7    -0.322648627674E+02    0.18358E-02   -0.25236E-03  3424   0.293E-01    0.111E-01
DAV:   8    -0.322635810035E+02    0.12818E-02   -0.17356E-03  3652   0.246E-01    0.113E-01
DAV:   9    -0.322631426158E+02    0.43839E-03   -0.56864E-04  3676   0.150E-01    0.109E-01
DAV:  10    -0.322628047778E+02    0.33784E-03   -0.66456E-04  3568   0.157E-01    0.123E-01
DAV:  11    -0.322663956803E+02   -0.35909E-02   -0.21365E-03  3384   0.262E-01    0.888E-02
DAV:  12    -0.322686595303E+02   -0.22638E-02   -0.28963E-03  3376   0.309E-01    0.904E-02
DAV:  13    -0.322677642580E+02    0.89527E-03   -0.93565E-04  3436   0.174E-01    0.964E-02
DAV:  14    -0.322660404114E+02    0.17238E-02   -0.88091E-04  3620   0.169E-01    0.851E-02
DAV:  15    -0.322658137444E+02    0.22667E-03   -0.38794E-04  3508   0.115E-01    0.780E-02
DAV:  16    -0.322674899769E+02   -0.16762E-02   -0.68770E-04  3440   0.145E-01    0.574E-02
DAV:  17    -0.322675648539E+02   -0.74877E-04   -0.40107E-04  3424   0.111E-01    0.491E-02
DAV:  18    -0.322676226430E+02   -0.57789E-04   -0.28545E-04  3404   0.984E-02    0.389E-02
DAV:  19    -0.322676222204E+02    0.42260E-06   -0.24108E-04  3412   0.897E-02    0.319E-02
DAV:  20    -0.322679326595E+02   -0.31044E-03   -0.43193E-04  3448   0.123E-01    0.263E-02
DAV:  21    -0.322681295351E+02   -0.19688E-03   -0.24314E-04  3460   0.931E-02    0.246E-02
DAV:  22    -0.322681786856E+02   -0.49150E-04   -0.24499E-04  3416   0.889E-02    0.262E-02
DAV:  23    -0.322680513909E+02    0.12729E-03   -0.71689E-05  3564   0.499E-02    0.274E-02
DAV:  24    -0.322678797752E+02    0.17162E-03   -0.30755E-05  3560   0.325E-02    0.304E-02
DAV:  25    -0.322677617786E+02    0.11800E-03   -0.65194E-06  4040   0.166E-02    0.305E-02
DAV:  26    -0.322678065063E+02   -0.44728E-04   -0.99089E-05  3420   0.570E-02    0.216E-02
DAV:  27    -0.322678370410E+02   -0.30535E-04   -0.79740E-06  3808   0.185E-02    0.214E-02
DAV:  28    -0.322679351808E+02   -0.98140E-04   -0.83397E-05  3412   0.539E-02    0.316E-02
DAV:  29    -0.322680216260E+02   -0.86445E-04   -0.40166E-05  3400   0.393E-02    0.360E-02
DAV:  30    -0.322681017336E+02   -0.80108E-04   -0.56345E-05  3464   0.455E-02    0.453E-02
DAV:  31    -0.322677766308E+02    0.32510E-03   -0.11126E-04  3404   0.602E-02    0.331E-02
DAV:  32    -0.322678332467E+02   -0.56616E-04   -0.79750E-05  3372   0.504E-02    0.364E-02
DAV:  33    -0.322678605453E+02   -0.27299E-04   -0.45515E-05  3480   0.407E-02    0.384E-02
DAV:  34    -0.322678268737E+02    0.33672E-04   -0.30979E-05  3604   0.343E-02    0.393E-02
DAV:  35    -0.322678042415E+02    0.22632E-04   -0.18123E-05  3540   0.260E-02    0.401E-02
DAV:  36    -0.322677835494E+02    0.20692E-04   -0.86016E-05  3412   0.517E-02    0.298E-02
DAV:  37    -0.322677292073E+02    0.54342E-04   -0.12603E-05  4004   0.230E-02    0.291E-02
DAV:  38    -0.322677461717E+02   -0.16964E-04   -0.29318E-05  3472   0.326E-02    0.297E-02
DAV:  39    -0.322676955177E+02    0.50654E-04   -0.30907E-05  3548   0.341E-02    0.313E-02
DAV:  40    -0.322677699285E+02   -0.74411E-04   -0.37307E-05  3456   0.367E-02    0.369E-02
DAV:  41    -0.322677505407E+02    0.19388E-04   -0.15293E-05  3720   0.229E-02    0.402E-02
DAV:  42    -0.322677793098E+02   -0.28769E-04   -0.31473E-05  3472   0.294E-02    0.400E-02
DAV:  43    -0.322677786794E+02    0.63040E-06   -0.80728E-06  3404   0.161E-02
   8 F= -.32267779E+02 E0= -.32267779E+02  d E =-.221671E+00  mag=     0.0000    -0.0000     6.0082
 curvature: -34.96 expect dE=-0.490E-01 dE for cont linesearch -0.766E-02
 ZBRENT: bracketing found
 ZBRENT: interpolating
 opt : 150.3338  next Energy=   -32.284522 (dE=-0.238E+00)
 bond charge predicted
       N       E                     dE             d eps       ncg     rms          rms(c)
DAV:   1    -0.322461641741E+02    0.21615E-01   -0.78879E+00  3376   0.935E+00    0.157E+00
DAV:   2    -0.322171119108E+02    0.29052E-01   -0.51275E-01  4460   0.460E+00    0.171E+00
DAV:   3    -0.320580928241E+02    0.15902E+00   -0.26945E-02  3768   0.109E+00    0.150E+00
DAV:   4    -0.319861019472E+02    0.71991E-01   -0.12545E-02  3548   0.578E-01    0.127E+00
DAV:   5    -0.319466620015E+02    0.39440E-01   -0.49350E-03  3928   0.392E-01    0.118E+00
DAV:   6    -0.319584241180E+02   -0.11762E-01   -0.18525E-03  3560   0.238E-01    0.117E+00
DAV:   7    -0.319720077238E+02   -0.13584E-01   -0.25212E-04  3688   0.897E-02    0.119E+00
DAV:   8    -0.319473082484E+02    0.24699E-01   -0.23500E-04  3540   0.867E-02    0.113E+00
DAV:   9    -0.319467659925E+02    0.54226E-03   -0.43495E-03  3316   0.379E-01    0.914E-01
DAV:  10    -0.320365046091E+02   -0.89739E-01   -0.41690E-03  3272   0.352E-01    0.857E-01
DAV:  11    -0.322710199713E+02   -0.23452E+00   -0.38782E-03  3488   0.350E-01    0.711E-01
DAV:  12    -0.322789202854E+02   -0.79003E-02   -0.11821E-03  3612   0.185E-01    0.744E-01
DAV:  13    -0.322792588947E+02   -0.33861E-03   -0.18848E-04  3712   0.762E-02    0.776E-01
DAV:  14    -0.322785778091E+02    0.68109E-03   -0.23070E-03  3476   0.247E-01    0.675E-01
DAV:  15    -0.322778422795E+02    0.73553E-03   -0.20416E-03  3460   0.220E-01    0.749E-01
DAV:  16    -0.322795090391E+02   -0.16668E-02   -0.21238E-04  3408   0.787E-02    0.700E-01
DAV:  17    -0.322850392345E+02   -0.55302E-02   -0.20391E-03  3420   0.238E-01    0.571E-01
DAV:  18    -0.322811848625E+02    0.38544E-02   -0.39043E-03  3444   0.361E-01    0.378E-01
DAV:  19    -0.322782029533E+02    0.29819E-02   -0.72811E-03  3544   0.492E-01    0.324E-01
DAV:  20    -0.322776932021E+02    0.50975E-03   -0.47179E-03  3636   0.385E-01    0.248E-01
DAV:  21    -0.322772945760E+02    0.39863E-03   -0.60495E-03  3496   0.450E-01    0.221E-01
DAV:  22    -0.322791906088E+02   -0.18960E-02   -0.55360E-03  3580   0.446E-01    0.188E-01
DAV:  23    -0.322803242207E+02   -0.11336E-02   -0.41823E-03  3484   0.395E-01    0.201E-01
DAV:  24    -0.322794694914E+02    0.85473E-03   -0.52143E-03  3344   0.412E-01    0.165E-01
DAV:  25    -0.322805333348E+02   -0.10638E-02   -0.31274E-03  3320   0.340E-01    0.170E-01
DAV:  26    -0.322802778614E+02    0.25547E-03   -0.11449E-03  3328   0.210E-01    0.167E-01
DAV:  27    -0.322796911788E+02    0.58668E-03   -0.42101E-04  3540   0.120E-01    0.172E-01
DAV:  28    -0.322796005106E+02    0.90668E-04   -0.52712E-05  4128   0.402E-02    0.182E-01
DAV:  29    -0.322792603938E+02    0.34012E-03   -0.51969E-03  3284   0.397E-01    0.148E-01
DAV:  30    -0.322811456837E+02   -0.18853E-02   -0.47871E-03  3320   0.412E-01    0.182E-01
DAV:  31    -0.322815120883E+02   -0.36640E-03   -0.13484E-03  3492   0.224E-01    0.199E-01
DAV:  32    -0.322812482154E+02    0.26387E-03   -0.37111E-04  3444   0.112E-01    0.206E-01
DAV:  33    -0.322811439686E+02    0.10425E-03   -0.38159E-05  3816   0.385E-02    0.207E-01
DAV:  34    -0.322807971441E+02    0.34682E-03   -0.21756E-03  3464   0.257E-01    0.180E-01
DAV:  35    -0.322811325166E+02   -0.33537E-03   -0.20355E-03  3428   0.253E-01    0.204E-01
DAV:  36    -0.322805658019E+02    0.56671E-03   -0.22588E-04  4052   0.894E-02    0.202E-01
DAV:  37    -0.322806564906E+02   -0.90689E-04   -0.24373E-05  3364   0.303E-02    0.199E-01
DAV:  38    -0.322806444289E+02    0.12062E-04   -0.10995E-06  2368   0.750E-03    0.199E-01
DAV:  39    -0.322798500323E+02    0.79440E-03   -0.75387E-04  3428   0.149E-01    0.184E-01
DAV:  40    -0.322803249775E+02   -0.47495E-03   -0.97901E-04  3360   0.161E-01    0.185E-01
DAV:  41    -0.322812045398E+02   -0.87956E-03   -0.32334E-04  3376   0.975E-02    0.191E-01
DAV:  42    -0.322824979441E+02   -0.12934E-02   -0.34916E-04  3416   0.104E-01    0.207E-01
DAV:  43    -0.322825261118E+02   -0.28168E-04   -0.67313E-05  3532   0.486E-02    0.210E-01
DAV:  44    -0.322827160188E+02   -0.18991E-03   -0.24625E-05  3340   0.266E-02    0.219E-01
DAV:  45    -0.322825897170E+02    0.12630E-03   -0.24611E-05  3384   0.245E-02    0.218E-01
DAV:  46    -0.322828351982E+02   -0.24548E-03   -0.65978E-05  3480   0.450E-02    0.225E-01
DAV:  47    -0.322828403756E+02   -0.51774E-05   -0.11309E-05  3632   0.200E-02    0.228E-01
DAV:  48    -0.322831299383E+02   -0.28956E-03   -0.13213E-04  3448   0.614E-02    0.238E-01
DAV:  49    -0.322829526275E+02    0.17731E-03   -0.18360E-04  3284   0.771E-02    0.241E-01
DAV:  50    -0.322831521475E+02   -0.19952E-03   -0.16725E-04  3444   0.739E-02    0.247E-01
DAV:  51    -0.322831360286E+02    0.16119E-04   -0.85889E-06  4872   0.191E-02    0.251E-01
DAV:  52    -0.322833636909E+02   -0.22766E-03   -0.15033E-05  3452   0.220E-02    0.259E-01
DAV:  53    -0.322834548871E+02   -0.91196E-04   -0.31558E-06  3240   0.102E-02    0.263E-01
DAV:  54    -0.322841803891E+02   -0.72550E-03   -0.31989E-04  3472   0.992E-02    0.289E-01
DAV:  55    -0.322840680018E+02    0.11239E-03   -0.17358E-04  3424   0.686E-02    0.287E-01
DAV:  56    -0.322845128370E+02   -0.44484E-03   -0.87449E-05  3404   0.534E-02    0.307E-01
DAV:  57    -0.322848519941E+02   -0.33916E-03   -0.75465E-05  3292   0.495E-02    0.320E-01
DAV:  58    -0.322850103024E+02   -0.15831E-03   -0.34570E-05  3472   0.331E-02    0.331E-01
DAV:  59    -0.322857322795E+02   -0.72198E-03   -0.92840E-04  3468   0.167E-01    0.380E-01
DAV:  60    -0.322844092513E+02    0.13230E-02   -0.60869E-04  3424   0.143E-01
   9 F= -.32284409E+02 E0= -.32284409E+02  d E =-.238302E+00  mag=     0.0000    -0.0000     6.0056
 curvature: -76.44 expect dE=-0.486E-01 dE for cont linesearch -0.120E-04
 trial: gam= 0.20244 g(F)=  0.636E-03 g(S)=  0.000E+00 ort =-0.226E-04 (trialstep = 0.309E+02)
 search vector abs. value=  0.760E-03
 bond charge predicted
       N       E                     dE             d eps       ncg     rms          rms(c)
DAV:   1    -0.322948770504E+02   -0.91448E-02   -0.11311E+00  3520   0.353E+00    0.678E-01
DAV:   2    -0.321750657758E+02    0.11981E+00   -0.69135E-02  4576   0.173E+00    0.121E+00
DAV:   3    -0.322957479880E+02   -0.12068E+00   -0.84277E-03  4232   0.698E-01    0.686E-01
DAV:   4    -0.322948136247E+02    0.93436E-03   -0.51850E-03  3360   0.399E-01    0.636E-01
DAV:   5    -0.322919993466E+02    0.28143E-02   -0.53115E-03  3472   0.397E-01    0.503E-01
DAV:   6    -0.322938859606E+02   -0.18866E-02   -0.25245E-03  3656   0.281E-01    0.376E-01
DAV:   7    -0.322939858711E+02   -0.99910E-04   -0.21743E-03  3508   0.268E-01    0.251E-01
DAV:   8    -0.322963586472E+02   -0.23728E-02   -0.30341E-03  3388   0.296E-01    0.175E-01
DAV:   9    -0.322965710709E+02   -0.21242E-03   -0.43079E-03  3416   0.365E-01    0.107E-01
DAV:  10    -0.322932116734E+02    0.33594E-02   -0.65271E-03  3296   0.462E-01    0.181E-01
DAV:  11    -0.322945087708E+02   -0.12971E-02   -0.29926E-03  3308   0.321E-01    0.127E-01
DAV:  12    -0.322963823101E+02   -0.18735E-02   -0.20428E-03  3480   0.260E-01    0.954E-02
DAV:  13    -0.322974467211E+02   -0.10644E-02   -0.16589E-03  3592   0.243E-01    0.117E-01
DAV:  14    -0.322990189280E+02   -0.15722E-02   -0.12225E-03  3480   0.210E-01    0.145E-01
DAV:  15    -0.322993274184E+02   -0.30849E-03   -0.65850E-04  3404   0.145E-01    0.148E-01
DAV:  16    -0.322988672213E+02    0.46020E-03   -0.32006E-04  3544   0.108E-01    0.127E-01
DAV:  17    -0.322985995691E+02    0.26765E-03   -0.38352E-04  3456   0.115E-01    0.112E-01
DAV:  18    -0.322989086278E+02   -0.30906E-03   -0.51001E-04  3320   0.142E-01    0.115E-01
DAV:  19    -0.322987334071E+02    0.17522E-03   -0.25161E-04  3296   0.984E-02    0.105E-01
DAV:  20    -0.322995151500E+02   -0.78174E-03   -0.58837E-04  3348   0.134E-01    0.125E-01
DAV:  21    -0.322995788544E+02   -0.63704E-04   -0.39821E-04  3276   0.105E-01    0.126E-01
DAV:  22    -0.322990936925E+02    0.48516E-03   -0.12082E-04  3464   0.675E-02    0.107E-01
DAV:  23    -0.322992043826E+02   -0.11069E-03   -0.15120E-04  3532   0.727E-02    0.968E-02
DAV:  24    -0.322996804942E+02   -0.47611E-03   -0.13200E-04  3388   0.716E-02    0.992E-02
DAV:  25    -0.322993012405E+02    0.37925E-03   -0.74107E-04  3424   0.155E-01    0.853E-02
DAV:  26    -0.322995489666E+02   -0.24773E-03   -0.90269E-04  3280   0.166E-01    0.694E-02
DAV:  27    -0.322996050242E+02   -0.56058E-04   -0.65307E-04  3368   0.145E-01    0.715E-02
DAV:  28    -0.322998509379E+02   -0.24591E-03   -0.29816E-04  3444   0.104E-01    0.886E-02
DAV:  29    -0.323002403140E+02   -0.38938E-03   -0.39852E-04  3472   0.123E-01    0.810E-02
DAV:  30    -0.323006877036E+02   -0.44739E-03   -0.57287E-04  3420   0.140E-01    0.676E-02
DAV:  31    -0.323002420750E+02    0.44563E-03   -0.62647E-04  3544   0.147E-01    0.756E-02
DAV:  32    -0.323001391710E+02    0.10290E-03   -0.56990E-05  4836   0.512E-02    0.779E-02
DAV:  33    -0.323001561276E+02   -0.16957E-04   -0.24078E-05  3564   0.310E-02    0.782E-02
DAV:  34    -0.323001585545E+02   -0.24270E-05   -0.12248E-05  3380   0.231E-02    0.806E-02
DAV:  35    -0.322998596124E+02    0.29894E-03   -0.31947E-04  3436   0.101E-01    0.635E-02
DAV:  36    -0.323001490522E+02   -0.28944E-03   -0.31493E-04  3416   0.988E-02    0.788E-02
DAV:  37    -0.323002061179E+02   -0.57066E-04   -0.40579E-05  4108   0.366E-02    0.949E-02
DAV:  38    -0.323002106301E+02   -0.45122E-05   -0.11213E-05  3632   0.195E-02    0.107E-01
DAV:  39    -0.323001974363E+02    0.13194E-04   -0.18413E-06  2488   0.890E-03    0.108E-01
DAV:  40    -0.322999509482E+02    0.24649E-03   -0.14283E-04  3436   0.693E-02    0.717E-02
DAV:  41    -0.323001560117E+02   -0.20506E-03   -0.17286E-04  3432   0.773E-02    0.755E-02
DAV:  42    -0.323004033039E+02   -0.24729E-03   -0.83632E-05  3476   0.510E-02    0.750E-02
DAV:  43    -0.323009538363E+02   -0.55053E-03   -0.18767E-04  3528   0.777E-02    0.751E-02
DAV:  44    -0.323011709498E+02   -0.21711E-03   -0.23231E-04  3624   0.805E-02    0.554E-02
DAV:  45    -0.323013009330E+02   -0.12998E-03   -0.13089E-04  3480   0.629E-02    0.435E-02
DAV:  46    -0.323014060463E+02   -0.10511E-03   -0.14635E-04  3636   0.658E-02    0.525E-02
DAV:  47    -0.323020266705E+02   -0.62062E-03   -0.35550E-04  3488   0.107E-01    0.979E-02
DAV:  48    -0.323023344977E+02   -0.30783E-03   -0.10359E-04  3764   0.573E-02    0.114E-01
DAV:  49    -0.323026276723E+02   -0.29317E-03   -0.11497E-04  3436   0.588E-02    0.125E-01
DAV:  50    -0.323021036693E+02    0.52400E-03   -0.67319E-05  3460   0.455E-02    0.108E-01
DAV:  51    -0.323022009841E+02   -0.97315E-04   -0.17951E-05  3652   0.210E-02    0.104E-01
DAV:  52    -0.323022644483E+02   -0.63464E-04   -0.14026E-05  3532   0.191E-02    0.102E-01
DAV:  53    -0.323023451291E+02   -0.80681E-04   -0.29569E-05  3540   0.277E-02    0.971E-02
DAV:  54    -0.323024246551E+02   -0.79526E-04   -0.29445E-05  3476   0.276E-02    0.881E-02
DAV:  55    -0.323024499322E+02   -0.25277E-04   -0.53997E-05  3440   0.398E-02    0.635E-02
DAV:  56    -0.323026684322E+02   -0.21850E-03   -0.10507E-04  3580   0.563E-02    0.625E-02
DAV:  57    -0.323028338839E+02   -0.16545E-03   -0.60940E-05  3680   0.430E-02    0.624E-02
DAV:  58    -0.323029524052E+02   -0.11852E-03   -0.33334E-05  3616   0.312E-02    0.618E-02
DAV:  59    -0.323031128312E+02   -0.16043E-03   -0.67678E-05  3520   0.432E-02    0.615E-02
DAV:  60    -0.323030378560E+02    0.74975E-04   -0.22780E-05  3416   0.268E-02
  10 F= -.32303038E+02 E0= -.32303038E+02  d E =-.186286E-01  mag=     0.0000     0.0000     6.0115
 trial-energy change:   -0.018629  1 .order   -0.016632   -0.019495   -0.013770
 step: 105.1192(harm=105.1192)  dis= 0.04752  next Energy=   -32.317604 (dE=-0.332E-01)
 bond charge predicted
       N       E                     dE             d eps       ncg     rms          rms(c)
DAV:   1    -0.322891389240E+02    0.13974E-01   -0.65176E+00  3504   0.847E+00    0.132E+00
DAV:   2    -0.317364355484E+02    0.55270E+00   -0.49841E-01  4188   0.462E+00    0.746E+00
DAV:   3    -0.320784298549E+02   -0.34199E+00   -0.59646E-02  4240   0.194E+00    0.311E+00
DAV:   4    -0.321842569419E+02   -0.10583E+00   -0.18307E-02  3980   0.878E-01    0.104E+00
DAV:   5    -0.322574144858E+02   -0.73158E-01   -0.14452E-02  3736   0.768E-01    0.365E-01
DAV:   6    -0.322883946787E+02   -0.30980E-01   -0.11664E-02  3612   0.568E-01    0.287E-01
DAV:   7    -0.322921751912E+02   -0.37805E-02   -0.56046E-03  3680   0.391E-01    0.224E-01
DAV:   8    -0.322804499032E+02    0.11725E-01   -0.46976E-03  3484   0.390E-01    0.339E-01
DAV:   9    -0.322847576816E+02   -0.43078E-02   -0.25279E-03  3524   0.270E-01    0.388E-01
DAV:  10    -0.322903836088E+02   -0.56259E-02   -0.85582E-04  3572   0.166E-01    0.304E-01
DAV:  11    -0.322880850275E+02    0.22986E-02   -0.91252E-04  3428   0.164E-01    0.331E-01
DAV:  12    -0.322931016684E+02   -0.50166E-02   -0.75377E-04  3392   0.153E-01    0.274E-01
DAV:  13    -0.322950835580E+02   -0.19819E-02   -0.69974E-04  3552   0.135E-01    0.220E-01
DAV:  14    -0.322978935208E+02   -0.28100E-02   -0.67811E-04  3452   0.138E-01    0.143E-01
DAV:  15    -0.323023653593E+02   -0.44718E-02   -0.10496E-03  3480   0.168E-01    0.874E-02
DAV:  16    -0.322943419336E+02    0.80234E-02   -0.25309E-03  3408   0.265E-01    0.326E-01
DAV:  17    -0.322976893359E+02   -0.33474E-02   -0.20224E-03  3380   0.225E-01    0.209E-01
DAV:  18    -0.323016110325E+02   -0.39217E-02   -0.12047E-03  3464   0.177E-01    0.110E-01
DAV:  19    -0.323047548084E+02   -0.31438E-02   -0.11176E-03  3576   0.167E-01    0.720E-02
DAV:  20    -0.323064977397E+02   -0.17429E-02   -0.86437E-04  3684   0.140E-01    0.106E-01
DAV:  21    -0.323044046461E+02    0.20931E-02   -0.13652E-03  3448   0.180E-01    0.135E-01
DAV:  22    -0.323104796048E+02   -0.60750E-02   -0.11546E-03  3372   0.180E-01    0.122E-01
DAV:  23    -0.323124423314E+02   -0.19627E-02   -0.53202E-04  3656   0.121E-01    0.185E-01
DAV:  24    -0.323134390737E+02   -0.99674E-03   -0.20066E-04  3592   0.701E-02    0.184E-01
DAV:  25    -0.323150324461E+02   -0.15934E-02   -0.32730E-04  3516   0.874E-02    0.148E-01
DAV:  26    -0.323138853143E+02    0.11471E-02   -0.38556E-04  3464   0.101E-01    0.260E-02
DAV:  27    -0.323158077323E+02   -0.19224E-02   -0.31395E-04  3352   0.947E-02    0.233E-02
DAV:  28    -0.323176367837E+02   -0.18291E-02   -0.45361E-04  3504   0.104E-01    0.121E-02
DAV:  29    -0.323181248594E+02   -0.48808E-03   -0.15938E-04  3676   0.611E-02    0.106E-02
DAV:  30    -0.323186590161E+02   -0.53416E-03   -0.16290E-04  3520   0.627E-02    0.751E-03
DAV:  31    -0.323193541807E+02   -0.69516E-03   -0.19040E-04  3508   0.680E-02    0.748E-03
DAV:  32    -0.323196227807E+02   -0.26860E-03   -0.84344E-05  3696   0.458E-02    0.514E-03
DAV:  33    -0.323202876072E+02   -0.66483E-03   -0.68235E-05  3432   0.407E-02    0.543E-03
DAV:  34    -0.323206133606E+02   -0.32575E-03   -0.90436E-05  3616   0.484E-02    0.590E-03
DAV:  35    -0.323207804912E+02   -0.16713E-03   -0.61543E-05  3460   0.403E-02    0.627E-03
DAV:  36    -0.323206774797E+02    0.10301E-03   -0.39400E-05  3400   0.302E-02    0.463E-03
DAV:  37    -0.323209272631E+02   -0.24978E-03   -0.58023E-05  3392   0.370E-02    0.447E-03
DAV:  38    -0.323210497496E+02   -0.12249E-03   -0.32110E-05  3484   0.301E-02    0.240E-03
DAV:  39    -0.323211211098E+02   -0.71360E-04   -0.89188E-06  3608   0.154E-02    0.157E-03
DAV:  40    -0.323211578013E+02   -0.36692E-04   -0.61098E-06  3676   0.124E-02    0.146E-03
DAV:  41    -0.323212023299E+02   -0.44529E-04   -0.51660E-06  3480   0.121E-02    0.112E-03
DAV:  42    -0.323212360351E+02   -0.33705E-04   -0.46041E-06  3472   0.111E-02    0.995E-04
DAV:  43    -0.323212400426E+02   -0.40075E-05   -0.17447E-06  3020   0.674E-03    0.735E-04
DAV:  44    -0.323212426329E+02   -0.25903E-05   -0.88220E-07  2556   0.477E-03    0.480E-04
DAV:  45    -0.323212469788E+02   -0.43459E-05   -0.43578E-07  2156   0.347E-03    0.290E-04
DAV:  46    -0.323212510361E+02   -0.40574E-05   -0.28420E-07  2292   0.287E-03    0.255E-04
DAV:  47    -0.323212560893E+02   -0.50531E-05   -0.15238E-07  2160   0.225E-03    0.174E-04
DAV:  48    -0.323212595227E+02   -0.34334E-05   -0.10727E-07  2128   0.189E-03    0.140E-04
DAV:  49    -0.323212623222E+02   -0.27995E-05   -0.55950E-08  2172   0.136E-03    0.115E-04
DAV:  50    -0.323212643627E+02   -0.20405E-05   -0.51883E-08  2184   0.133E-03    0.109E-04
DAV:  51    -0.323212653582E+02   -0.99549E-06   -0.23977E-08  2172   0.934E-04
  11 F= -.32321265E+02 E0= -.32321265E+02  d E =-.368561E-01  mag=     0.0000     0.0000     6.0331
 curvature: -63.28 expect dE=-0.287E-03 dE for cont linesearch -0.320E-04
 ZBRENT: extrapolating
 opt : 108.5328  next Energy=   -32.321299 (dE=-0.369E-01)
 bond charge predicted
       N       E                     dE             d eps       ncg     rms          rms(c)
DAV:   1    -0.323212354639E+02    0.28899E-04   -0.13806E-02  3616   0.390E-01    0.612E-02
DAV:   2    -0.323193164968E+02    0.19190E-02   -0.17478E-03  3720   0.251E-01    0.678E-02
DAV:   3    -0.323203118361E+02   -0.99534E-03   -0.20141E-03  3404   0.234E-01    0.356E-02
DAV:   4    -0.323210831418E+02   -0.77131E-03   -0.83086E-04  3400   0.147E-01    0.220E-02
DAV:   5    -0.323212467275E+02   -0.16359E-03   -0.31575E-04  3500   0.926E-02    0.125E-02
DAV:   6    -0.323212365686E+02    0.10159E-04   -0.23970E-04  3624   0.804E-02    0.100E-02
DAV:   7    -0.323212859157E+02   -0.49347E-04   -0.15740E-04  3452   0.635E-02    0.714E-03
DAV:   8    -0.323212827478E+02    0.31679E-05   -0.66142E-05  3452   0.429E-02    0.383E-03
DAV:   9    -0.323212984978E+02   -0.15750E-04   -0.36574E-05  3432   0.322E-02    0.262E-03
DAV:  10    -0.323212951607E+02    0.33371E-05   -0.10777E-05  3496   0.177E-02    0.185E-03
DAV:  11    -0.323212852215E+02    0.99392E-05   -0.82169E-06  3560   0.148E-02    0.116E-03
DAV:  12    -0.323212948632E+02   -0.96417E-05   -0.26154E-06  3396   0.819E-03    0.854E-04
DAV:  13    -0.323212942848E+02    0.57840E-06   -0.13319E-06  2628   0.557E-03
  12 F= -.32321294E+02 E0= -.32321294E+02  d E =-.368850E-01  mag=     0.0000    -0.0000     6.0329
 curvature: -66.19 expect dE=-0.379E-03 dE for cont linesearch -0.373E-07
 trial: gam= 0.04789 g(F)=  0.573E-05 g(S)=  0.000E+00 ort = 0.654E-06 (trialstep = 0.464E+02)
 search vector abs. value=  0.754E-05
 bond charge predicted
       N       E                     dE             d eps       ncg     rms          rms(c)
DAV:   1    -0.323214013121E+02   -0.10645E-03   -0.25274E-02  3448   0.527E-01    0.850E-02
DAV:   2    -0.323210350133E+02    0.36630E-03   -0.24480E-03  3904   0.282E-01    0.110E-01
DAV:   3    -0.323213676259E+02   -0.33261E-03   -0.18432E-03  3440   0.234E-01    0.539E-02
DAV:   4    -0.323214898409E+02   -0.12221E-03   -0.10110E-03  3420   0.161E-01    0.317E-02
DAV:   5    -0.323214264098E+02    0.63431E-04   -0.53338E-04  3540   0.116E-01    0.250E-02
DAV:   6    -0.323213028344E+02    0.12358E-03   -0.18339E-04  3400   0.666E-02    0.197E-02
DAV:   7    -0.323213334074E+02   -0.30573E-04   -0.13764E-04  3516   0.593E-02    0.136E-02
DAV:   8    -0.323214764744E+02   -0.14307E-03   -0.91070E-05  3508   0.505E-02    0.841E-03
DAV:   9    -0.323214863317E+02   -0.98572E-05   -0.81800E-05  3460   0.484E-02    0.615E-03
DAV:  10    -0.323214264159E+02    0.59916E-04   -0.61360E-05  3452   0.410E-02    0.363E-03
DAV:  11    -0.323214138111E+02    0.12605E-04   -0.40025E-05  3668   0.344E-02    0.304E-03
DAV:  12    -0.323214484967E+02   -0.34686E-04   -0.27003E-05  3468   0.280E-02    0.193E-03
DAV:  13    -0.323214879642E+02   -0.39467E-04   -0.53043E-06  3480   0.123E-02    0.131E-03
DAV:  14    -0.323214972123E+02   -0.92481E-05   -0.66963E-06  3352   0.135E-02    0.113E-03
DAV:  15    -0.323215018616E+02   -0.46493E-05   -0.48763E-06  3548   0.116E-02    0.592E-04
DAV:  16    -0.323215128903E+02   -0.11029E-04   -0.16037E-06  2680   0.645E-03    0.531E-04
DAV:  17    -0.323215205835E+02   -0.76931E-05   -0.13249E-06  2628   0.561E-03    0.357E-04
DAV:  18    -0.323215207943E+02   -0.21086E-06   -0.31456E-07  2284   0.296E-03
  13 F= -.32321521E+02 E0= -.32321521E+02  d E =-.226510E-03  mag=     0.0000     0.0000     6.0330
 trial-energy change:   -0.000227  1 .order   -0.000225   -0.000267   -0.000183
 step: 147.6866(harm=147.6866)  dis= 0.00724  next Energy=   -32.321720 (dE=-0.425E-03)
 bond charge predicted
       N       E                     dE             d eps       ncg     rms          rms(c)
DAV:   1    -0.323211624620E+02    0.35812E-03   -0.12044E-01  3416   0.115E+00    0.186E-01
DAV:   2    -0.323216529304E+02   -0.49047E-03   -0.59252E-03  4284   0.447E-01    0.136E-02
DAV:   3    -0.323215893762E+02    0.63554E-04   -0.84351E-05  3940   0.608E-02    0.458E-03
DAV:   4    -0.323215959857E+02   -0.66095E-05   -0.63141E-05  3548   0.419E-02    0.405E-03
DAV:   5    -0.323216605020E+02   -0.64516E-04   -0.24971E-05  3436   0.263E-02    0.219E-03
DAV:   6    -0.323216712073E+02   -0.10705E-04   -0.66512E-06  3512   0.137E-02    0.189E-03
DAV:   7    -0.323216915323E+02   -0.20325E-04   -0.23832E-06  3128   0.787E-03    0.183E-03
DAV:   8    -0.323216973054E+02   -0.57731E-05   -0.10792E-06  2752   0.539E-03    0.172E-03
DAV:   9    -0.323217033039E+02   -0.59986E-05   -0.55124E-07  2208   0.383E-03    0.159E-03
DAV:  10    -0.323217118114E+02   -0.85075E-05   -0.63290E-07  2272   0.415E-03    0.123E-03
DAV:  11    -0.323217149482E+02   -0.31367E-05   -0.42082E-07  2200   0.361E-03    0.114E-03
DAV:  12    -0.323217169507E+02   -0.20025E-05   -0.11917E-07  2196   0.202E-03    0.991E-04
DAV:  13    -0.323217198951E+02   -0.29445E-05   -0.15155E-07  2124   0.223E-03    0.947E-04
DAV:  14    -0.323217226151E+02   -0.27200E-05   -0.10151E-07  2152   0.179E-03    0.662E-04
DAV:  15    -0.323217249104E+02   -0.22953E-05   -0.88371E-08  2192   0.166E-03    0.595E-04
DAV:  16    -0.323217262004E+02   -0.12900E-05   -0.61796E-08  2180   0.139E-03    0.390E-04
DAV:  17    -0.323217270019E+02   -0.80149E-06   -0.66986E-08  2252   0.145E-03
  14 F= -.32321727E+02 E0= -.32321727E+02  d E =-.432717E-03  mag=    -0.0000     0.0000     6.0327
 curvature: -96.60 expect dE=-0.267E-06 dE for cont linesearch -0.509E-08
 ZBRENT: extrapolating
 opt : 148.2000  next Energy=   -32.321727 (dE=-0.433E-03)
 bond charge predicted
       N       E                     dE             d eps       ncg     rms          rms(c)
DAV:   1    -0.323217269808E+02   -0.78039E-06   -0.31227E-06  3352   0.595E-03    0.967E-04
DAV:   2    -0.323217264016E+02    0.57923E-06   -0.23388E-07  2120   0.307E-03
  15 F= -.32321726E+02 E0= -.32321726E+02  d E =-.432117E-03  mag=    -0.0000     0.0000     6.0327
 curvature: -97.09 expect dE=-0.287E-06 dE for cont linesearch -0.123E-07
 ZBRENT: bracketing found
 ZBRENT: interpolating
 opt : 147.8878  next Energy=   -32.321727 (dE=-0.433E-03)
 bond charge predicted
       N       E                     dE             d eps       ncg     rms          rms(c)
DAV:   1    -0.323217276309E+02   -0.65007E-06   -0.11087E-06  2428   0.423E-03    0.463E-04
DAV:   2    -0.323217279893E+02   -0.35841E-06   -0.40367E-07  2128   0.368E-03
  16 F= -.32321728E+02 E0= -.32321728E+02  d E =-.433705E-03  mag=    -0.0000     0.0000     6.0327
 curvature: -15.80 expect dE=-0.597E-07 dE for cont linesearch -0.135E-07
 ZBRENT: interpolating
 opt : 148.1132  next Energy=   -32.321726 (dE=-0.432E-03)
 bond charge predicted
       N       E                     dE             d eps       ncg     rms          rms(c)
DAV:   1    -0.323217290941E+02   -0.14632E-05   -0.71561E-07  2108   0.400E-03    0.584E-04
DAV:   2    -0.323217289058E+02    0.18830E-06   -0.76242E-07  2248   0.458E-03
  17 F= -.32321729E+02 E0= -.32321729E+02  d E =-.434621E-03  mag=    -0.0000     0.0000     6.0327
 curvature:  -1.57 expect dE=-0.537E-08 dE for cont linesearch -0.932E-09
 ZBRENT: bisectioning
 opt : 148.0005  next Energy=   -32.321729 (dE=-0.435E-03)
 bond charge predicted
       N       E                     dE             d eps       ncg     rms          rms(c)
DAV:   1    -0.323217284952E+02    0.59885E-06   -0.76370E-07  2224   0.453E-03    0.353E-04
DAV:   2    -0.323217296801E+02   -0.11849E-05   -0.44400E-07  2112   0.377E-03    0.305E-04
DAV:   3    -0.323217292809E+02    0.39925E-06   -0.24093E-07  2244   0.282E-03
  18 F= -.32321729E+02 E0= -.32321729E+02  d E =-.434996E-03  mag=    -0.0000     0.0000     6.0327
 curvature: -17.13 expect dE=-0.544E-07 dE for cont linesearch -0.201E-08
 ZBRENT: interpolating
 opt : 148.0352  next Energy=   -32.321729 (dE=-0.435E-03)
 bond charge predicted
       N       E                     dE             d eps       ncg     rms          rms(c)
DAV:   1    -0.323217295635E+02    0.11658E-06   -0.40983E-08  2136   0.141E-03    0.200E-04
DAV:   2    -0.323217297420E+02   -0.17843E-06   -0.37022E-08  2044   0.112E-03
  19 F= -.32321730E+02 E0= -.32321730E+02  d E =-.435457E-03  mag=    -0.0000     0.0000     6.0327
 curvature:  -4.39 expect dE=-0.131E-07 dE for cont linesearch -0.685E-10
 ZBRENT: interpolating
 opt : 148.0259  next Energy=   -32.321730 (dE=-0.435E-03)
 bond charge predicted
       N       E                     dE             d eps       ncg     rms          rms(c)
DAV:   1    -0.323217294472E+02    0.11637E-06   -0.22547E-08  1972   0.880E-04    0.635E-05
DAV:   2    -0.323217298177E+02   -0.37053E-06   -0.82917E-09  2140   0.638E-04
  20 F= -.32321730E+02 E0= -.32321730E+02  d E =-.435533E-03  mag=    -0.0000     0.0000     6.0327
 curvature:  -3.22 expect dE=-0.960E-08 dE for cont linesearch -0.272E-10
 ZBRENT: interpolating
 opt : 148.0298  next Energy=   -32.321730 (dE=-0.436E-03)
 bond charge predicted
       N       E                     dE             d eps       ncg     rms          rms(c)
DAV:   1    -0.323217297738E+02   -0.32660E-06   -0.20123E-09  2156   0.390E-04    0.364E-05
DAV:   2    -0.323217297326E+02    0.41140E-07   -0.17755E-09  2100   0.328E-04
  21 F= -.32321730E+02 E0= -.32321730E+02  d E =-.435448E-03  mag=    -0.0000     0.0000     6.0327
 curvature:  -1.86 expect dE=-0.552E-08 dE for cont linesearch -0.488E-11
 ZBRENT: interpolating
 opt : 148.0333  next Energy=   -32.321730 (dE=-0.435E-03)
 bond charge predicted
       N       E                     dE             d eps       ncg     rms          rms(c)
DAV:   1    -0.323217298348E+02   -0.61013E-07    0.12970E-10  2084   0.212E-04    0.252E-05
DAV:   2    -0.323217298930E+02   -0.58220E-07    0.43905E-10  2136   0.190E-04
  22 F= -.32321730E+02 E0= -.32321730E+02  d E =-.435608E-03  mag=    -0.0000     0.0000     6.0327
 curvature:  -3.84 expect dE=-0.114E-07 dE for cont linesearch -0.666E-11
 ZBRENT: bisectioning
 opt : 148.0343  next Energy=   -32.321730 (dE=-0.436E-03)
 bond charge predicted
       N       E                     dE             d eps       ncg     rms          rms(c)
DAV:   1    -0.323217298987E+02   -0.63935E-07    0.84946E-10  2156   0.140E-04    0.218E-05
DAV:   2    -0.323217299349E+02   -0.36204E-07    0.57130E-10  2000   0.153E-04
  23 F= -.32321730E+02 E0= -.32321730E+02  d E =-.435650E-03  mag=    -0.0000     0.0000     6.0327
 curvature:  -1.84 expect dE=-0.549E-08 dE for cont linesearch -0.617E-11
 ZBRENT: bisectioning
 opt : 148.0347  next Energy=   -32.321730 (dE=-0.436E-03)
 bond charge predicted
       N       E                     dE             d eps       ncg     rms          rms(c)
DAV:   1    -0.323217299478E+02   -0.49079E-07    0.97233E-10  2064   0.112E-04    0.151E-05
DAV:   2    -0.323217299876E+02   -0.39811E-07    0.11748E-09  2124   0.917E-05
  24 F= -.32321730E+02 E0= -.32321730E+02  d E =-.435703E-03  mag=    -0.0000     0.0000     6.0327
 curvature:  -0.73 expect dE=-0.218E-08 dE for cont linesearch -0.311E-11
 ZBRENT: bisectioning
 opt : 148.0349  next Energy=   -32.321730 (dE=-0.436E-03)
 bond charge predicted
       N       E                     dE             d eps       ncg     rms          rms(c)
DAV:   1    -0.323217299954E+02   -0.47625E-07    0.11930E-09  2000   0.767E-05    0.986E-06
DAV:   2    -0.323217300206E+02   -0.25196E-07    0.12978E-09  2084   0.538E-05
  25 F= -.32321730E+02 E0= -.32321730E+02  d E =-.435736E-03  mag=    -0.0000     0.0000     6.0327
 curvature:  -0.31 expect dE=-0.930E-09 dE for cont linesearch -0.147E-11
 ZBRENT: bisectioning
 opt : 148.0351  next Energy=   -32.321730 (dE=-0.436E-03)
 bond charge predicted
       N       E                     dE             d eps       ncg     rms          rms(c)
DAV:   1    -0.323217300276E+02   -0.32227E-07    0.13181E-09  2116   0.407E-05    0.566E-06
DAV:   2    -0.323217300342E+02   -0.65879E-08    0.13136E-09  2096   0.399E-05
  26 F= -.32321730E+02 E0= -.32321730E+02  d E =-.435749E-03  mag=    -0.0000     0.0000     6.0327
 curvature:  -0.15 expect dE=-0.434E-09 dE for cont linesearch -0.694E-12
 ZBRENT: bisectioning
 opt : 148.0351  next Energy=   -32.321730 (dE=-0.436E-03)
 bond charge predicted
       N       E                     dE             d eps       ncg     rms          rms(c)
DAV:   1    -0.323217300350E+02   -0.73601E-08    0.13388E-09  1872   0.285E-05    0.466E-06
DAV:   2    -0.323217300399E+02   -0.49404E-08    0.13570E-09  2064   0.177E-05
  27 F= -.32321730E+02 E0= -.32321730E+02  d E =-.435755E-03  mag=    -0.0000     0.0000     6.0327
 curvature:  -0.07 expect dE=-0.214E-09 dE for cont linesearch -0.338E-12
 ZBRENT: bisectioning
 opt : 148.0351  next Energy=   -32.321730 (dE=-0.436E-03)
 bond charge predicted
       N       E                     dE             d eps       ncg     rms          rms(c)
DAV:   1    -0.323217300366E+02   -0.15643E-08    0.13533E-09  1732   0.172E-05    0.370E-06
DAV:   2    -0.323217300407E+02   -0.41373E-08    0.13443E-09  1736   0.171E-05
  28 F= -.32321730E+02 E0= -.32321730E+02  d E =-.435756E-03  mag=    -0.0000     0.0000     6.0327
 curvature:  -0.04 expect dE=-0.107E-09 dE for cont linesearch -0.171E-12
 ZBRENT: bisectioning
 opt : 148.0352  next Energy=   -32.321730 (dE=-0.436E-03)
 bond charge predicted
       N       E                     dE             d eps       ncg     rms          rms(c)
DAV:   1    -0.323217300391E+02   -0.25543E-08    0.13505E-09  1728   0.116E-05    0.275E-06
DAV:   2    -0.323217300409E+02   -0.17230E-08    0.13539E-09  1732   0.754E-06
  29 F= -.32321730E+02 E0= -.32321730E+02  d E =-.435756E-03  mag=    -0.0000     0.0000     6.0327
 curvature:  -0.02 expect dE=-0.535E-10 dE for cont linesearch -0.866E-13
 ZBRENT: bisectioning
 opt : 148.0352  next Energy=   -32.321730 (dE=-0.436E-03)
 bond charge predicted
       N       E                     dE             d eps       ncg     rms          rms(c)
DAV:   1    -0.323217300409E+02   -0.18108E-08    0.13564E-09  1708   0.573E-06    0.229E-06
DAV:   2    -0.323217300424E+02   -0.14466E-08    0.13596E-09  1704   0.442E-06
  30 F= -.32321730E+02 E0= -.32321730E+02  d E =-.435758E-03  mag=    -0.0000     0.0000     6.0327
 curvature:  -0.01 expect dE=-0.266E-10 dE for cont linesearch -0.432E-13
 ZBRENT:  can not reach accuracy
 opt :   0.0000  next Energy=     0.000000 (dE= 0.323E+02)
 bond charge predicted
       N       E                     dE             d eps       ncg     rms          rms(c)
DAV:   1    -0.323200976731E+02    0.16324E-02   -0.25719E-01  3384   0.168E+00    0.270E-01
DAV:   2    -0.323204460678E+02   -0.34839E-03   -0.12727E-02  4284   0.658E-01    0.323E-02
DAV:   3    -0.323211114519E+02   -0.66538E-03   -0.31280E-04  3612   0.114E-01    0.131E-02
DAV:   4    -0.323212646632E+02   -0.15321E-03   -0.11286E-04  3392   0.566E-02    0.545E-03
DAV:   5    -0.323212691152E+02   -0.44520E-05   -0.30962E-05  3444   0.294E-02    0.326E-03
DAV:   6    -0.323212799746E+02   -0.10859E-04   -0.14498E-05  3448   0.204E-02    0.252E-03
DAV:   7    -0.323212898156E+02   -0.98409E-05   -0.35609E-06  3444   0.955E-03    0.215E-03
DAV:   8    -0.323212857371E+02    0.40784E-05   -0.50490E-06  3564   0.116E-02    0.175E-03
DAV:   9    -0.323212835515E+02    0.21856E-05   -0.16111E-05  3372   0.204E-02    0.277E-03
DAV:  10    -0.323212933730E+02   -0.98215E-05   -0.64537E-06  3388   0.134E-02    0.127E-03
DAV:  11    -0.323212937591E+02   -0.38613E-06   -0.19548E-06  2888   0.755E-03
  31 F= -.32321294E+02 E0= -.32321294E+02  d E =0.525642E-06  mag=    -0.0000    -0.0000     6.0331
 curvature:   0.00 expect dE= 0.000E+00 dE for cont linesearch  0.000E+00
 ZBRENT: fatal error in bracketing
     please rerun with smaller EDIFF, or copy CONTCAR
     to POSCAR and continue
