   8   8   1   0
  0.2122975E+03  0.7002000E-09  0.7002000E-09  0.4000000E-08  0.2000000E-16
  1.000000000000000E-004
  CAR 
 monolayer-CrI3                          
      2.72203640    -17.97266521  301     -4.29691656      1.00000000
    -17.973  0.0000E+00  0.0000E+00  0.0000E+00  0.0000E+00
    -17.904  0.0000E+00  0.0000E+00  0.0000E+00  0.0000E+00
    -17.835  0.0000E+00  0.0000E+00  0.0000E+00  0.0000E+00
    -17.766  0.0000E+00  0.0000E+00  0.0000E+00  0.0000E+00
    -17.697  0.0000E+00  0.0000E+00  0.0000E+00  0.0000E+00
    -17.628  0.0000E+00  0.0000E+00  0.0000E+00  0.0000E+00
    -17.559  0.0000E+00  0.0000E+00  0.0000E+00  0.0000E+00
    -17.490  0.0000E+00  0.0000E+00  0.0000E+00  0.0000E+00
    -17.421  0.0000E+00  0.0000E+00  0.0000E+00  0.0000E+00
    -17.352  0.0000E+00  0.0000E+00  0.0000E+00  0.0000E+00
    -17.283  0.0000E+00  0.0000E+00  0.0000E+00  0.0000E+00
    -17.214  0.0000E+00  0.0000E+00  0.0000E+00  0.0000E+00
    -17.145  0.0000E+00  0.0000E+00  0.0000E+00  0.0000E+00
    -17.076  0.0000E+00  0.0000E+00  0.0000E+00  0.0000E+00
    -17.007  0.6769E-02  0.1852E-01  0.1141E-04  0.4220E-03
    -16.938  0.1960E-01  0.2218E-01  0.1339E-02  0.1853E-02
    -16.869  0.2150E-01  0.2373E-01  0.2782E-02  0.3394E-02
    -16.800  0.2417E-01  0.2704E-01  0.4362E-02  0.5115E-02
    -16.731  0.3007E-01  0.5757E-01  0.6197E-02  0.7422E-02
    -16.662  0.4469E-01  0.1533E-01  0.8866E-02  0.9534E-02
    -16.593  0.7755E-02  0.0000E+00  0.9909E-02  0.1000E-01
    -16.524  0.0000E+00  0.1683E-01  0.1000E-01  0.1039E-01
    -16.455  0.2367E-01  0.3585E-01  0.1090E-01  0.1316E-01
    -16.386  0.2896E-01  0.2459E-01  0.1382E-01  0.1514E-01
    -16.317  0.2256E-01  0.5980E-01  0.1554E-01  0.1724E-01
    -16.248  0.5768E-01  0.1548E+00  0.1760E-01  0.2112E-01
    -16.179  0.1354E+00  0.2079E+00  0.2190E-01  0.3266E-01
    -16.110  0.1923E+00  0.0000E+00  0.3334E-01  0.4000E-01
    -16.041  0.0000E+00  0.7191E-01  0.4000E-01  0.4489E-01
    -15.972  0.7114E-01  0.2192E+00  0.4522E-01  0.5922E-01
    -15.903  0.0000E+00  0.0000E+00  0.6000E-01  0.6000E-01
    -15.834  0.0000E+00  0.0000E+00  0.6000E-01  0.6000E-01
    -15.765  0.0000E+00  0.0000E+00  0.6000E-01  0.6000E-01
    -15.696  0.0000E+00  0.0000E+00  0.6000E-01  0.6000E-01
    -15.627  0.0000E+00  0.0000E+00  0.6000E-01  0.6000E-01
    -15.558  0.0000E+00  0.0000E+00  0.6000E-01  0.6000E-01
    -15.489  0.0000E+00  0.0000E+00  0.6000E-01  0.6000E-01
    -15.420  0.0000E+00  0.0000E+00  0.6000E-01  0.6000E-01
    -15.351  0.0000E+00  0.0000E+00  0.6000E-01  0.6000E-01
    -15.282  0.0000E+00  0.0000E+00  0.6000E-01  0.6000E-01
    -15.213  0.0000E+00  0.0000E+00  0.6000E-01  0.6000E-01
    -15.144  0.0000E+00  0.0000E+00  0.6000E-01  0.6000E-01
    -15.075  0.0000E+00  0.0000E+00  0.6000E-01  0.6000E-01
    -15.006  0.0000E+00  0.0000E+00  0.6000E-01  0.6000E-01
    -14.937  0.0000E+00  0.0000E+00  0.6000E-01  0.6000E-01
    -14.868  0.0000E+00  0.0000E+00  0.6000E-01  0.6000E-01
    -14.799  0.0000E+00  0.0000E+00  0.6000E-01  0.6000E-01
    -14.730  0.0000E+00  0.0000E+00  0.6000E-01  0.6000E-01
    -14.662  0.0000E+00  0.0000E+00  0.6000E-01  0.6000E-01
    -14.593  0.0000E+00  0.0000E+00  0.6000E-01  0.6000E-01
    -14.524  0.0000E+00  0.0000E+00  0.6000E-01  0.6000E-01
    -14.455  0.0000E+00  0.0000E+00  0.6000E-01  0.6000E-01
    -14.386  0.0000E+00  0.0000E+00  0.6000E-01  0.6000E-01
    -14.317  0.0000E+00  0.0000E+00  0.6000E-01  0.6000E-01
    -14.248  0.0000E+00  0.0000E+00  0.6000E-01  0.6000E-01
    -14.179  0.0000E+00  0.0000E+00  0.6000E-01  0.6000E-01
    -14.110  0.0000E+00  0.0000E+00  0.6000E-01  0.6000E-01
    -14.041  0.0000E+00  0.0000E+00  0.6000E-01  0.6000E-01
    -13.972  0.0000E+00  0.0000E+00  0.6000E-01  0.6000E-01
    -13.903  0.0000E+00  0.0000E+00  0.6000E-01  0.6000E-01
    -13.834  0.0000E+00  0.0000E+00  0.6000E-01  0.6000E-01
    -13.765  0.0000E+00  0.0000E+00  0.6000E-01  0.6000E-01
    -13.696  0.0000E+00  0.0000E+00  0.6000E-01  0.6000E-01
    -13.627  0.0000E+00  0.0000E+00  0.6000E-01  0.6000E-01
    -13.558  0.0000E+00  0.0000E+00  0.6000E-01  0.6000E-01
    -13.489  0.0000E+00  0.0000E+00  0.6000E-01  0.6000E-01
    -13.420  0.0000E+00  0.0000E+00  0.6000E-01  0.6000E-01
    -13.351  0.0000E+00  0.0000E+00  0.6000E-01  0.6000E-01
    -13.282  0.0000E+00  0.0000E+00  0.6000E-01  0.6000E-01
    -13.213  0.0000E+00  0.0000E+00  0.6000E-01  0.6000E-01
    -13.144  0.0000E+00  0.0000E+00  0.6000E-01  0.6000E-01
    -13.075  0.0000E+00  0.0000E+00  0.6000E-01  0.6000E-01
    -13.006  0.0000E+00  0.0000E+00  0.6000E-01  0.6000E-01
    -12.937  0.0000E+00  0.0000E+00  0.6000E-01  0.6000E-01
    -12.868  0.0000E+00  0.0000E+00  0.6000E-01  0.6000E-01
    -12.799  0.0000E+00  0.0000E+00  0.6000E-01  0.6000E-01
    -12.730  0.0000E+00  0.0000E+00  0.6000E-01  0.6000E-01
    -12.661  0.0000E+00  0.0000E+00  0.6000E-01  0.6000E-01
    -12.592  0.0000E+00  0.0000E+00  0.6000E-01  0.6000E-01
    -12.523  0.0000E+00  0.0000E+00  0.6000E-01  0.6000E-01
    -12.454  0.0000E+00  0.0000E+00  0.6000E-01  0.6000E-01
    -12.385  0.0000E+00  0.0000E+00  0.6000E-01  0.6000E-01
    -12.316  0.0000E+00  0.0000E+00  0.6000E-01  0.6000E-01
    -12.247  0.0000E+00  0.0000E+00  0.6000E-01  0.6000E-01
    -12.178  0.0000E+00  0.0000E+00  0.6000E-01  0.6000E-01
    -12.109  0.0000E+00  0.0000E+00  0.6000E-01  0.6000E-01
    -12.040  0.0000E+00  0.0000E+00  0.6000E-01  0.6000E-01
    -11.971  0.0000E+00  0.0000E+00  0.6000E-01  0.6000E-01
    -11.902  0.0000E+00  0.0000E+00  0.6000E-01  0.6000E-01
    -11.833  0.0000E+00  0.0000E+00  0.6000E-01  0.6000E-01
    -11.764  0.0000E+00  0.0000E+00  0.6000E-01  0.6000E-01
    -11.695  0.0000E+00  0.0000E+00  0.6000E-01  0.6000E-01
    -11.626  0.0000E+00  0.0000E+00  0.6000E-01  0.6000E-01
    -11.557  0.0000E+00  0.0000E+00  0.6000E-01  0.6000E-01
    -11.488  0.0000E+00  0.0000E+00  0.6000E-01  0.6000E-01
    -11.419  0.0000E+00  0.0000E+00  0.6000E-01  0.6000E-01
    -11.350  0.0000E+00  0.0000E+00  0.6000E-01  0.6000E-01
    -11.281  0.0000E+00  0.0000E+00  0.6000E-01  0.6000E-01
    -11.212  0.0000E+00  0.0000E+00  0.6000E-01  0.6000E-01
    -11.143  0.0000E+00  0.0000E+00  0.6000E-01  0.6000E-01
    -11.074  0.0000E+00  0.0000E+00  0.6000E-01  0.6000E-01
    -11.005  0.0000E+00  0.0000E+00  0.6000E-01  0.6000E-01
    -10.936  0.0000E+00  0.0000E+00  0.6000E-01  0.6000E-01
    -10.867  0.0000E+00  0.0000E+00  0.6000E-01  0.6000E-01
    -10.799  0.0000E+00  0.0000E+00  0.6000E-01  0.6000E-01
    -10.730  0.0000E+00  0.0000E+00  0.6000E-01  0.6000E-01
    -10.661  0.0000E+00  0.0000E+00  0.6000E-01  0.6000E-01
    -10.592  0.0000E+00  0.0000E+00  0.6000E-01  0.6000E-01
    -10.523  0.0000E+00  0.0000E+00  0.6000E-01  0.6000E-01
    -10.454  0.0000E+00  0.0000E+00  0.6000E-01  0.6000E-01
    -10.385  0.0000E+00  0.0000E+00  0.6000E-01  0.6000E-01
    -10.316  0.0000E+00  0.0000E+00  0.6000E-01  0.6000E-01
    -10.247  0.0000E+00  0.0000E+00  0.6000E-01  0.6000E-01
    -10.178  0.0000E+00  0.0000E+00  0.6000E-01  0.6000E-01
    -10.109  0.0000E+00  0.0000E+00  0.6000E-01  0.6000E-01
    -10.040  0.0000E+00  0.0000E+00  0.6000E-01  0.6000E-01
     -9.971  0.0000E+00  0.0000E+00  0.6000E-01  0.6000E-01
     -9.902  0.0000E+00  0.0000E+00  0.6000E-01  0.6000E-01
     -9.833  0.0000E+00  0.0000E+00  0.6000E-01  0.6000E-01
     -9.764  0.0000E+00  0.0000E+00  0.6000E-01  0.6000E-01
     -9.695  0.0000E+00  0.0000E+00  0.6000E-01  0.6000E-01
     -9.626  0.0000E+00  0.0000E+00  0.6000E-01  0.6000E-01
     -9.557  0.0000E+00  0.0000E+00  0.6000E-01  0.6000E-01
     -9.488  0.0000E+00  0.0000E+00  0.6000E-01  0.6000E-01
     -9.419  0.0000E+00  0.0000E+00  0.6000E-01  0.6000E-01
     -9.350  0.0000E+00  0.0000E+00  0.6000E-01  0.6000E-01
     -9.281  0.0000E+00  0.0000E+00  0.6000E-01  0.6000E-01
     -9.212  0.0000E+00  0.0000E+00  0.6000E-01  0.6000E-01
     -9.143  0.0000E+00  0.0000E+00  0.6000E-01  0.6000E-01
     -9.074  0.0000E+00  0.0000E+00  0.6000E-01  0.6000E-01
     -9.005  0.0000E+00  0.0000E+00  0.6000E-01  0.6000E-01
     -8.936  0.0000E+00  0.0000E+00  0.6000E-01  0.6000E-01
     -8.867  0.0000E+00  0.0000E+00  0.6000E-01  0.6000E-01
     -8.798  0.0000E+00  0.0000E+00  0.6000E-01  0.6000E-01
     -8.729  0.2705E-01  0.0000E+00  0.6083E-01  0.6000E-01
     -8.660  0.2774E-01  0.0000E+00  0.6261E-01  0.6000E-01
     -8.591  0.5308E-01  0.0000E+00  0.6555E-01  0.6000E-01
     -8.522  0.2000E-01  0.0000E+00  0.6765E-01  0.6000E-01
     -8.453  0.1224E-01  0.2890E-01  0.6878E-01  0.6119E-01
     -8.384  0.8058E-02  0.4893E-01  0.6946E-01  0.6366E-01
     -8.315  0.0000E+00  0.2663E-01  0.7000E-01  0.6693E-01
     -8.246  0.0000E+00  0.1656E-01  0.7000E-01  0.6839E-01
     -8.177  0.0000E+00  0.9495E-02  0.7000E-01  0.6924E-01
     -8.108  0.7456E-01  0.7268E-02  0.7596E-01  0.6980E-01
     -8.039  0.4730E-01  0.0000E+00  0.7970E-01  0.7000E-01
     -7.970  0.0000E+00  0.0000E+00  0.8000E-01  0.7000E-01
     -7.901  0.0000E+00  0.1991E+00  0.8000E-01  0.7272E-01
     -7.832  0.0000E+00  0.4847E-01  0.8000E-01  0.7875E-01
     -7.763  0.0000E+00  0.0000E+00  0.8000E-01  0.8000E-01
     -7.694  0.6728E-01  0.4926E-01  0.8745E-01  0.8046E-01
     -7.625  0.1294E+00  0.7630E-01  0.9674E-01  0.8456E-01
     -7.556  0.6773E-01  0.3056E-01  0.1028E+00  0.8837E-01
     -7.487  0.4323E-01  0.1007E+00  0.1059E+00  0.9394E-01
     -7.418  0.4907E-01  0.4400E-01  0.1097E+00  0.9725E-01
     -7.349  0.5061E-01  0.3170E-01  0.1125E+00  0.9993E-01
     -7.280  0.4143E-01  0.6224E-01  0.1199E+00  0.1054E+00
     -7.211  0.3936E-01  0.1216E+00  0.1262E+00  0.1090E+00
     -7.142  0.5000E-01  0.1344E-01  0.1287E+00  0.1127E+00
     -7.073  0.0000E+00  0.7167E-01  0.1300E+00  0.1148E+00
     -7.004  0.7628E-01  0.7066E-01  0.1322E+00  0.1198E+00
     -6.935  0.1383E+00  0.4444E-01  0.1393E+00  0.1216E+00
     -6.867  0.2709E-01  0.4249E-01  0.1447E+00  0.1260E+00
     -6.798  0.4009E-01  0.2150E-01  0.1469E+00  0.1278E+00
     -6.729  0.2646E-01  0.2645E-01  0.1497E+00  0.1296E+00
     -6.660  0.5536E-02  0.6422E-02  0.1501E+00  0.1307E+00
     -6.591  0.1748E-01  0.3589E-01  0.1509E+00  0.1319E+00
     -6.522  0.4609E-01  0.3680E-01  0.1542E+00  0.1343E+00
     -6.453  0.9928E-01  0.1134E+00  0.1577E+00  0.1380E+00
     -6.384  0.3874E-01  0.5971E-01  0.1615E+00  0.1439E+00
     -6.315  0.5115E-01  0.1291E-01  0.1663E+00  0.1502E+00
     -6.246  0.5468E-01  0.4219E-02  0.1708E+00  0.1505E+00
     -6.177  0.3074E-01  0.5157E-01  0.1729E+00  0.1529E+00
     -6.108  0.5533E-01  0.7561E-01  0.1760E+00  0.1568E+00
     -6.039  0.2318E-01  0.3049E-01  0.1795E+00  0.1597E+00
     -5.970  0.1334E+00  0.1027E+00  0.1832E+00  0.1640E+00
     -5.901  0.3448E-01  0.7914E-01  0.1882E+00  0.1685E+00
     -5.832  0.2804E-01  0.6757E-01  0.1898E+00  0.1756E+00
     -5.763  0.7607E-01  0.2639E-01  0.1928E+00  0.1788E+00
     -5.694  0.4944E-01  0.4000E-01  0.1978E+00  0.1814E+00
     -5.625  0.1123E+00  0.5685E-01  0.2020E+00  0.1857E+00
     -5.556  0.1107E+00  0.1936E-01  0.2088E+00  0.1904E+00
     -5.487  0.8963E-01  0.7593E-01  0.2149E+00  0.1941E+00
     -5.418  0.1923E-01  0.5223E-01  0.2183E+00  0.1977E+00
     -5.349  0.5738E-01  0.4876E-01  0.2222E+00  0.2032E+00
     -5.280  0.7579E-01  0.1676E-01  0.2263E+00  0.2070E+00
     -5.211  0.4695E-01  0.7130E-01  0.2310E+00  0.2120E+00
     -5.142  0.7191E-01  0.4469E-01  0.2331E+00  0.2161E+00
     -5.073  0.8565E-01  0.2737E-01  0.2448E+00  0.2181E+00
     -5.004  0.4993E-01  0.1279E+00  0.2491E+00  0.2217E+00
     -4.935  0.0000E+00  0.2292E-01  0.2500E+00  0.2298E+00
     -4.866  0.3650E-01  0.3195E-01  0.2506E+00  0.2319E+00
     -4.797  0.3806E+00  0.5245E-01  0.2570E+00  0.2344E+00
     -4.728  0.1093E+00  0.3683E-01  0.2708E+00  0.2381E+00
     -4.659  0.3212E-01  0.1262E-01  0.2755E+00  0.2394E+00
     -4.590  0.8399E-01  0.0000E+00  0.2813E+00  0.2400E+00
     -4.521  0.5104E-01  0.0000E+00  0.2869E+00  0.2400E+00
     -4.452  0.1472E-01  0.0000E+00  0.2891E+00  0.2400E+00
     -4.383  0.1475E+00  0.0000E+00  0.2911E+00  0.2400E+00
     -4.314  0.0000E+00  0.0000E+00  0.3000E+00  0.2400E+00
     -4.245  0.0000E+00  0.0000E+00  0.3000E+00  0.2400E+00
     -4.176  0.0000E+00  0.0000E+00  0.3000E+00  0.2400E+00
     -4.107  0.0000E+00  0.0000E+00  0.3000E+00  0.2400E+00
     -4.038  0.0000E+00  0.0000E+00  0.3000E+00  0.2400E+00
     -3.969  0.0000E+00  0.0000E+00  0.3000E+00  0.2400E+00
     -3.900  0.0000E+00  0.0000E+00  0.3000E+00  0.2400E+00
     -3.831  0.0000E+00  0.0000E+00  0.3000E+00  0.2400E+00
     -3.762  0.0000E+00  0.0000E+00  0.3000E+00  0.2400E+00
     -3.693  0.0000E+00  0.0000E+00  0.3000E+00  0.2400E+00
     -3.624  0.0000E+00  0.0000E+00  0.3000E+00  0.2400E+00
     -3.555  0.0000E+00  0.0000E+00  0.3000E+00  0.2400E+00
     -3.486  0.0000E+00  0.0000E+00  0.3000E+00  0.2400E+00
     -3.417  0.0000E+00  0.0000E+00  0.3000E+00  0.2400E+00
     -3.348  0.0000E+00  0.0000E+00  0.3000E+00  0.2400E+00
     -3.279  0.0000E+00  0.0000E+00  0.3000E+00  0.2400E+00
     -3.210  0.0000E+00  0.0000E+00  0.3000E+00  0.2400E+00
     -3.141  0.9945E-01  0.0000E+00  0.3000E+00  0.2400E+00
     -3.072  0.7121E-01  0.0000E+00  0.3182E+00  0.2400E+00
     -3.003  0.9755E-01  0.0000E+00  0.3267E+00  0.2400E+00
     -2.935  0.3298E-01  0.0000E+00  0.3289E+00  0.2400E+00
     -2.866  0.4802E-01  0.0000E+00  0.3319E+00  0.2400E+00
     -2.797  0.6412E-01  0.0000E+00  0.3372E+00  0.2400E+00
     -2.728  0.0000E+00  0.0000E+00  0.3400E+00  0.2400E+00
     -2.659  0.0000E+00  0.0000E+00  0.3400E+00  0.2400E+00
     -2.590  0.0000E+00  0.0000E+00  0.3400E+00  0.2400E+00
     -2.521  0.0000E+00  0.0000E+00  0.3400E+00  0.2400E+00
     -2.452  0.0000E+00  0.0000E+00  0.3400E+00  0.2400E+00
     -2.383  0.0000E+00  0.1572E+00  0.3400E+00  0.2454E+00
     -2.314  0.0000E+00  0.4878E-01  0.3400E+00  0.2566E+00
     -2.245  0.0000E+00  0.3090E-01  0.3400E+00  0.2600E+00
     -2.176  0.0000E+00  0.1548E+00  0.3400E+00  0.2669E+00
     -2.107  0.0000E+00  0.7864E-01  0.3400E+00  0.2737E+00
     -2.038  0.0000E+00  0.6391E-01  0.3400E+00  0.2784E+00
     -1.969  0.0000E+00  0.1767E+00  0.3400E+00  0.2953E+00
     -1.900  0.0000E+00  0.0000E+00  0.3400E+00  0.3000E+00
     -1.831  0.0000E+00  0.0000E+00  0.3400E+00  0.3000E+00
     -1.762  0.0000E+00  0.0000E+00  0.3400E+00  0.3000E+00
     -1.693  0.0000E+00  0.0000E+00  0.3400E+00  0.3000E+00
     -1.624  0.0000E+00  0.2164E+00  0.3400E+00  0.3114E+00
     -1.555  0.0000E+00  0.7304E-01  0.3400E+00  0.3227E+00
     -1.486  0.0000E+00  0.1293E+00  0.3400E+00  0.3319E+00
     -1.417  0.0000E+00  0.3495E-01  0.3400E+00  0.3384E+00
     -1.348  0.0000E+00  0.0000E+00  0.3400E+00  0.3400E+00
     -1.279  0.0000E+00  0.0000E+00  0.3400E+00  0.3400E+00
     -1.210  0.0000E+00  0.0000E+00  0.3400E+00  0.3400E+00
     -1.141  0.0000E+00  0.0000E+00  0.3400E+00  0.3400E+00
     -1.072  0.0000E+00  0.0000E+00  0.3400E+00  0.3400E+00
     -1.003  0.0000E+00  0.0000E+00  0.3400E+00  0.3400E+00
     -0.934  0.0000E+00  0.0000E+00  0.3400E+00  0.3400E+00
     -0.865  0.0000E+00  0.0000E+00  0.3400E+00  0.3400E+00
     -0.796  0.0000E+00  0.0000E+00  0.3400E+00  0.3400E+00
     -0.727  0.0000E+00  0.0000E+00  0.3400E+00  0.3400E+00
     -0.658  0.0000E+00  0.0000E+00  0.3400E+00  0.3400E+00
     -0.589  0.0000E+00  0.0000E+00  0.3400E+00  0.3400E+00
     -0.520  0.0000E+00  0.0000E+00  0.3400E+00  0.3400E+00
     -0.451  0.0000E+00  0.0000E+00  0.3400E+00  0.3400E+00
     -0.382  0.0000E+00  0.0000E+00  0.3400E+00  0.3400E+00
     -0.313  0.0000E+00  0.0000E+00  0.3400E+00  0.3400E+00
     -0.244  0.0000E+00  0.0000E+00  0.3400E+00  0.3400E+00
     -0.175  0.0000E+00  0.0000E+00  0.3400E+00  0.3400E+00
     -0.106  0.0000E+00  0.0000E+00  0.3400E+00  0.3400E+00
     -0.037  0.0000E+00  0.0000E+00  0.3400E+00  0.3400E+00
      0.032  0.0000E+00  0.0000E+00  0.3400E+00  0.3400E+00
      0.101  0.0000E+00  0.0000E+00  0.3400E+00  0.3400E+00
      0.170  0.0000E+00  0.0000E+00  0.3400E+00  0.3400E+00
      0.239  0.0000E+00  0.0000E+00  0.3400E+00  0.3400E+00
      0.308  0.0000E+00  0.0000E+00  0.3400E+00  0.3400E+00
      0.377  0.2307E-01  0.0000E+00  0.3407E+00  0.3400E+00
      0.446  0.3242E-01  0.0000E+00  0.3427E+00  0.3400E+00
      0.515  0.2912E-01  0.4227E-02  0.3453E+00  0.3401E+00
      0.584  0.6079E-01  0.4359E-02  0.3478E+00  0.3404E+00
      0.653  0.1327E-01  0.5138E-02  0.3516E+00  0.3407E+00
      0.722  0.1302E-01  0.5317E-02  0.3524E+00  0.3411E+00
      0.791  0.1393E-01  0.5709E-02  0.3534E+00  0.3415E+00
      0.860  0.1475E-01  0.2415E-01  0.3544E+00  0.3423E+00
      0.928  0.2031E-01  0.3642E-01  0.3556E+00  0.3446E+00
      0.997  0.1576E-01  0.3641E-01  0.3569E+00  0.3474E+00
      1.066  0.1998E-01  0.4781E-01  0.3581E+00  0.3499E+00
      1.135  0.3152E-01  0.1858E-01  0.3597E+00  0.3515E+00
      1.204  0.4447E-01  0.4732E-01  0.3623E+00  0.3555E+00
      1.273  0.2561E-01  0.3161E-01  0.3648E+00  0.3596E+00
      1.342  0.2389E-01  0.2543E-01  0.3665E+00  0.3615E+00
      1.411  0.8680E-01  0.2795E-01  0.3708E+00  0.3638E+00
      1.480  0.9573E-01  0.3233E-01  0.3754E+00  0.3659E+00
      1.549  0.1826E-01  0.9826E-01  0.3799E+00  0.3696E+00
      1.618  0.0000E+00  0.3908E-01  0.3800E+00  0.3732E+00
      1.687  0.0000E+00  0.6786E-01  0.3800E+00  0.3770E+00
      1.756  0.0000E+00  0.1823E-01  0.3800E+00  0.3796E+00
      1.825  0.0000E+00  0.0000E+00  0.3800E+00  0.3800E+00
      1.894  0.0000E+00  0.0000E+00  0.3800E+00  0.3800E+00
      1.963  0.0000E+00  0.0000E+00  0.3800E+00  0.3800E+00
      2.032  0.0000E+00  0.0000E+00  0.3800E+00  0.3800E+00
      2.101  0.0000E+00  0.0000E+00  0.3800E+00  0.3800E+00
      2.170  0.0000E+00  0.0000E+00  0.3800E+00  0.3800E+00
      2.239  0.0000E+00  0.0000E+00  0.3800E+00  0.3800E+00
      2.308  0.0000E+00  0.0000E+00  0.3800E+00  0.3800E+00
      2.377  0.0000E+00  0.0000E+00  0.3800E+00  0.3800E+00
      2.446  0.0000E+00  0.0000E+00  0.3800E+00  0.3800E+00
      2.515  0.0000E+00  0.0000E+00  0.3800E+00  0.3800E+00
      2.584  0.0000E+00  0.0000E+00  0.3800E+00  0.3800E+00
      2.653  0.0000E+00  0.0000E+00  0.3800E+00  0.3800E+00
      2.722  0.0000E+00  0.0000E+00  0.3800E+00  0.3800E+00
      2.72203640    -17.97266521  301     -4.29691656      1.00000000
    -17.973  0.0000E+00  0.0000E+00  0.0000E+00  0.0000E+00  0.0000E+00  0.0000E+00  0.0000E+00  0.0000E+00  0.0000E+00  0.0000E+00  0.0000E+00  0.0000E+00  0.0000E+00  0.0000E+00  0.0000E+00  0.0000E+00  0.0000E+00  0.0000E+00
    -17.904  0.0000E+00  0.0000E+00  0.0000E+00  0.0000E+00  0.0000E+00  0.0000E+00  0.0000E+00  0.0000E+00  0.0000E+00  0.0000E+00  0.0000E+00  0.0000E+00  0.0000E+00  0.0000E+00  0.0000E+00  0.0000E+00  0.0000E+00  0.0000E+00
    -17.835  0.0000E+00  0.0000E+00  0.0000E+00  0.0000E+00  0.0000E+00  0.0000E+00  0.0000E+00  0.0000E+00  0.0000E+00  0.0000E+00  0.0000E+00  0.0000E+00  0.0000E+00  0.0000E+00  0.0000E+00  0.0000E+00  0.0000E+00  0.0000E+00
    -17.766  0.0000E+00  0.0000E+00  0.0000E+00  0.0000E+00  0.0000E+00  0.0000E+00  0.0000E+00  0.0000E+00  0.0000E+00  0.0000E+00  0.0000E+00  0.0000E+00  0.0000E+00  0.0000E+00  0.0000E+00  0.0000E+00  0.0000E+00  0.0000E+00
    -17.697  0.0000E+00  0.0000E+00  0.0000E+00  0.0000E+00  0.0000E+00  0.0000E+00  0.0000E+00  0.0000E+00  0.0000E+00  0.0000E+00  0.0000E+00  0.0000E+00  0.0000E+00  0.0000E+00  0.0000E+00  0.0000E+00  0.0000E+00  0.0000E+00
    -17.628  0.0000E+00  0.0000E+00  0.0000E+00  0.0000E+00  0.0000E+00  0.0000E+00  0.0000E+00  0.0000E+00  0.0000E+00  0.0000E+00  0.0000E+00  0.0000E+00  0.0000E+00  0.0000E+00  0.0000E+00  0.0000E+00  0.0000E+00  0.0000E+00
    -17.559  0.0000E+00  0.0000E+00  0.0000E+00  0.0000E+00  0.0000E+00  0.0000E+00  0.0000E+00  0.0000E+00  0.0000E+00  0.0000E+00  0.0000E+00  0.0000E+00  0.0000E+00  0.0000E+00  0.0000E+00  0.0000E+00  0.0000E+00  0.0000E+00
    -17.490  0.0000E+00  0.0000E+00  0.0000E+00  0.0000E+00  0.0000E+00  0.0000E+00  0.0000E+00  0.0000E+00  0.0000E+00  0.0000E+00  0.0000E+00  0.0000E+00  0.0000E+00  0.0000E+00  0.0000E+00  0.0000E+00  0.0000E+00  0.0000E+00
    -17.421  0.0000E+00  0.0000E+00  0.0000E+00  0.0000E+00  0.0000E+00  0.0000E+00  0.0000E+00  0.0000E+00  0.0000E+00  0.0000E+00  0.0000E+00  0.0000E+00  0.0000E+00  0.0000E+00  0.0000E+00  0.0000E+00  0.0000E+00  0.0000E+00
    -17.352  0.0000E+00  0.0000E+00  0.0000E+00  0.0000E+00  0.0000E+00  0.0000E+00  0.0000E+00  0.0000E+00  0.0000E+00  0.0000E+00  0.0000E+00  0.0000E+00  0.0000E+00  0.0000E+00  0.0000E+00  0.0000E+00  0.0000E+00  0.0000E+00
    -17.283  0.0000E+00  0.0000E+00  0.0000E+00  0.0000E+00  0.0000E+00  0.0000E+00  0.0000E+00  0.0000E+00  0.0000E+00  0.0000E+00  0.0000E+00  0.0000E+00  0.0000E+00  0.0000E+00  0.0000E+00  0.0000E+00  0.0000E+00  0.0000E+00
    -17.214  0.0000E+00  0.0000E+00  0.0000E+00  0.0000E+00  0.0000E+00  0.0000E+00  0.0000E+00  0.0000E+00  0.0000E+00  0.0000E+00  0.0000E+00  0.0000E+00  0.0000E+00  0.0000E+00  0.0000E+00  0.0000E+00  0.0000E+00  0.0000E+00
    -17.145  0.0000E+00  0.0000E+00  0.0000E+00  0.0000E+00  0.0000E+00  0.0000E+00  0.0000E+00  0.0000E+00  0.0000E+00  0.0000E+00  0.0000E+00  0.0000E+00  0.0000E+00  0.0000E+00  0.0000E+00  0.0000E+00  0.0000E+00  0.0000E+00
    -17.076  0.0000E+00  0.0000E+00  0.0000E+00  0.0000E+00  0.0000E+00  0.0000E+00  0.0000E+00  0.0000E+00  0.0000E+00  0.0000E+00  0.0000E+00  0.0000E+00  0.0000E+00  0.0000E+00  0.0000E+00  0.0000E+00  0.0000E+00  0.0000E+00
    -17.007  0.1334E-01  0.3037E-01  0.1054E-04  0.1776E-03  0.6153E-20  0.5879E-08  0.3163E-04  0.1864E-03  0.3620E-05  0.1957E-04  0.1375E-05  0.8512E-05  0.1427E-04  0.2445E-04  0.4584E-06  0.7567E-05  0.1207E-05  0.1803E-04
    -16.938  0.3652E-01  0.3446E-01  0.5260E-03  0.5939E-03  0.6940E-07  0.1030E-06  0.5461E-03  0.7126E-03  0.7312E-04  0.8538E-04  0.3241E-04  0.4188E-04  0.3500E-04  0.2509E-04  0.2483E-04  0.2725E-04  0.6252E-04  0.6245E-04
    -16.869  0.3775E-01  0.3458E-01  0.1057E-02  0.1126E-02  0.4735E-06  0.6514E-06  0.1124E-02  0.1279E-02  0.1725E-03  0.1786E-03  0.8497E-04  0.9773E-04  0.3218E-04  0.2231E-04  0.5602E-04  0.5895E-04  0.1329E-03  0.1266E-03
    -16.800  0.3979E-01  0.3667E-01  0.1653E-02  0.1759E-02  0.1871E-05  0.2713E-05  0.1890E-02  0.2123E-02  0.3358E-03  0.3543E-03  0.1809E-03  0.2137E-03  0.2984E-04  0.2056E-04  0.1003E-03  0.1069E-03  0.2231E-03  0.2144E-03
    -16.731  0.4634E-01  0.7296E-01  0.2464E-02  0.3726E-02  0.5893E-05  0.1088E-04  0.3172E-02  0.6424E-02  0.6480E-03  0.1266E-02  0.3735E-03  0.8149E-03  0.3023E-04  0.3510E-04  0.1824E-03  0.3375E-03  0.3721E-03  0.5809E-03
    -16.662  0.6499E-01  0.1758E-01  0.4421E-02  0.1729E-02  0.1981E-04  0.1439E-04  0.5405E-02  0.1757E-02  0.1223E-02  0.3192E-03  0.7362E-03  0.2013E-03  0.3743E-04  0.7265E-05  0.3680E-03  0.1433E-03  0.7161E-03  0.2525E-03
    -16.593  0.1030E-01  0.0000E+00  0.1027E-02  0.0000E+00  0.8699E-05  0.0000E+00  0.1076E-02  0.0000E+00  0.2085E-03  0.0000E+00  0.1193E-03  0.0000E+00  0.5135E-05  0.0000E+00  0.9585E-04  0.0000E+00  0.1773E-03  0.0000E+00
    -16.524  0.0000E+00  0.1393E-01  0.0000E+00  0.2591E-02  0.0000E+00  0.3756E-04  0.0000E+00  0.3504E-02  0.0000E+00  0.3855E-03  0.0000E+00  0.1937E-03  0.0000E+00  0.3823E-05  0.0000E+00  0.2416E-03  0.0000E+00  0.3962E-03
    -16.455  0.2286E-01  0.2340E-01  0.4097E-02  0.5310E-02  0.5029E-04  0.4712E-04  0.5830E-02  0.1041E-01  0.6915E-03  0.9074E-03  0.3123E-03  0.4162E-03  0.7583E-05  0.5237E-05  0.4102E-03  0.4547E-03  0.7151E-03  0.7430E-03
    -16.386  0.2187E-01  0.1293E-01  0.5143E-02  0.4483E-02  0.4029E-04  0.3489E-04  0.9410E-02  0.7277E-02  0.1009E-02  0.7565E-03  0.4619E-03  0.4211E-03  0.5660E-05  0.2253E-05  0.5014E-03  0.4664E-03  0.8584E-03  0.7115E-03
    -16.317  0.1371E-01  0.8060E-02  0.4850E-02  0.4015E-02  0.3206E-04  0.2470E-01  0.7514E-02  0.5920E-02  0.9327E-03  0.9271E-03  0.4997E-03  0.9883E-03  0.2745E-05  0.1091E-05  0.5380E-03  0.9313E-03  0.8745E-03  0.8359E-03
    -16.248  0.7424E-02  0.1369E-01  0.3496E-02  0.3299E-01  0.2946E-01  0.2798E-01  0.5269E-02  0.3283E-01  0.1027E-02  0.3679E-02  0.1179E-02  0.3997E-02  0.1169E-05  0.1186E-05  0.1102E-02  0.4554E-02  0.9021E-03  0.4149E-02
    -16.179  0.1096E-01  0.2106E-02  0.3331E-01  0.4950E-01  0.2923E-01  0.4038E-01  0.3184E-01  0.3119E-01  0.3851E-02  0.6657E-02  0.4241E-02  0.8700E-02  0.1059E-05  0.1234E-06  0.4804E-02  0.1230E-01  0.4285E-02  0.8859E-02
    -16.110  0.2164E-02  0.0000E+00  0.4886E-01  0.0000E+00  0.4507E-01  0.0000E+00  0.3246E-01  0.0000E+00  0.7762E-02  0.0000E+00  0.1017E-01  0.0000E+00  0.1424E-06  0.0000E+00  0.1411E-01  0.0000E+00  0.9980E-02  0.0000E+00
    -16.041  0.0000E+00  0.4368E-03  0.0000E+00  0.1339E-02  0.0000E+00  0.1263E-01  0.0000E+00  0.1923E-02  0.0000E+00  0.4489E-02  0.0000E+00  0.1084E-01  0.0000E+00  0.1365E-07  0.0000E+00  0.1761E-01  0.0000E+00  0.7859E-02
    -15.972  0.4708E-03  0.6612E-03  0.1656E-02  0.1226E-01  0.1374E-01  0.1363E-02  0.2306E-02  0.1375E-01  0.5604E-02  0.2369E-01  0.1366E-01  0.5585E-01  0.2698E-07  0.8756E-08  0.2129E-01  0.5047E-01  0.9418E-02  0.2126E-01
    -15.903  0.0000E+00  0.0000E+00  0.0000E+00  0.0000E+00  0.0000E+00  0.0000E+00  0.0000E+00  0.0000E+00  0.0000E+00  0.0000E+00  0.0000E+00  0.0000E+00  0.0000E+00  0.0000E+00  0.0000E+00  0.0000E+00  0.0000E+00  0.0000E+00
    -15.834  0.0000E+00  0.0000E+00  0.0000E+00  0.0000E+00  0.0000E+00  0.0000E+00  0.0000E+00  0.0000E+00  0.0000E+00  0.0000E+00  0.0000E+00  0.0000E+00  0.0000E+00  0.0000E+00  0.0000E+00  0.0000E+00  0.0000E+00  0.0000E+00
    -15.765  0.0000E+00  0.0000E+00  0.0000E+00  0.0000E+00  0.0000E+00  0.0000E+00  0.0000E+00  0.0000E+00  0.0000E+00  0.0000E+00  0.0000E+00  0.0000E+00  0.0000E+00  0.0000E+00  0.0000E+00  0.0000E+00  0.0000E+00  0.0000E+00
    -15.696  0.0000E+00  0.0000E+00  0.0000E+00  0.0000E+00  0.0000E+00  0.0000E+00  0.0000E+00  0.0000E+00  0.0000E+00  0.0000E+00  0.0000E+00  0.0000E+00  0.0000E+00  0.0000E+00  0.0000E+00  0.0000E+00  0.0000E+00  0.0000E+00
    -15.627  0.0000E+00  0.0000E+00  0.0000E+00  0.0000E+00  0.0000E+00  0.0000E+00  0.0000E+00  0.0000E+00  0.0000E+00  0.0000E+00  0.0000E+00  0.0000E+00  0.0000E+00  0.0000E+00  0.0000E+00  0.0000E+00  0.0000E+00  0.0000E+00
    -15.558  0.0000E+00  0.0000E+00  0.0000E+00  0.0000E+00  0.0000E+00  0.0000E+00  0.0000E+00  0.0000E+00  0.0000E+00  0.0000E+00  0.0000E+00  0.0000E+00  0.0000E+00  0.0000E+00  0.0000E+00  0.0000E+00  0.0000E+00  0.0000E+00
    -15.489  0.0000E+00  0.0000E+00  0.0000E+00  0.0000E+00  0.0000E+00  0.0000E+00  0.0000E+00  0.0000E+00  0.0000E+00  0.0000E+00  0.0000E+00  0.0000E+00  0.0000E+00  0.0000E+00  0.0000E+00  0.0000E+00  0.0000E+00  0.0000E+00
    -15.420  0.0000E+00  0.0000E+00  0.0000E+00  0.0000E+00  0.0000E+00  0.0000E+00  0.0000E+00  0.0000E+00  0.0000E+00  0.0000E+00  0.0000E+00  0.0000E+00  0.0000E+00  0.0000E+00  0.0000E+00  0.0000E+00  0.0000E+00  0.0000E+00
    -15.351  0.0000E+00  0.0000E+00  0.0000E+00  0.0000E+00  0.0000E+00  0.0000E+00  0.0000E+00  0.0000E+00  0.0000E+00  0.0000E+00  0.0000E+00  0.0000E+00  0.0000E+00  0.0000E+00  0.0000E+00  0.0000E+00  0.0000E+00  0.0000E+00
    -15.282  0.0000E+00  0.0000E+00  0.0000E+00  0.0000E+00  0.0000E+00  0.0000E+00  0.0000E+00  0.0000E+00  0.0000E+00  0.0000E+00  0.0000E+00  0.0000E+00  0.0000E+00  0.0000E+00  0.0000E+00  0.0000E+00  0.0000E+00  0.0000E+00
    -15.213  0.0000E+00  0.0000E+00  0.0000E+00  0.0000E+00  0.0000E+00  0.0000E+00  0.0000E+00  0.0000E+00  0.0000E+00  0.0000E+00  0.0000E+00  0.0000E+00  0.0000E+00  0.0000E+00  0.0000E+00  0.0000E+00  0.0000E+00  0.0000E+00
    -15.144  0.0000E+00  0.0000E+00  0.0000E+00  0.0000E+00  0.0000E+00  0.0000E+00  0.0000E+00  0.0000E+00  0.0000E+00  0.0000E+00  0.0000E+00  0.0000E+00  0.0000E+00  0.0000E+00  0.0000E+00  0.0000E+00  0.0000E+00  0.0000E+00
    -15.075  0.0000E+00  0.0000E+00  0.0000E+00  0.0000E+00  0.0000E+00  0.0000E+00  0.0000E+00  0.0000E+00  0.0000E+00  0.0000E+00  0.0000E+00  0.0000E+00  0.0000E+00  0.0000E+00  0.0000E+00  0.0000E+00  0.0000E+00  0.0000E+00
    -15.006  0.0000E+00  0.0000E+00  0.0000E+00  0.0000E+00  0.0000E+00  0.0000E+00  0.0000E+00  0.0000E+00  0.0000E+00  0.0000E+00  0.0000E+00  0.0000E+00  0.0000E+00  0.0000E+00  0.0000E+00  0.0000E+00  0.0000E+00  0.0000E+00
    -14.937  0.0000E+00  0.0000E+00  0.0000E+00  0.0000E+00  0.0000E+00  0.0000E+00  0.0000E+00  0.0000E+00  0.0000E+00  0.0000E+00  0.0000E+00  0.0000E+00  0.0000E+00  0.0000E+00  0.0000E+00  0.0000E+00  0.0000E+00  0.0000E+00
    -14.868  0.0000E+00  0.0000E+00  0.0000E+00  0.0000E+00  0.0000E+00  0.0000E+00  0.0000E+00  0.0000E+00  0.0000E+00  0.0000E+00  0.0000E+00  0.0000E+00  0.0000E+00  0.0000E+00  0.0000E+00  0.0000E+00  0.0000E+00  0.0000E+00
    -14.799  0.0000E+00  0.0000E+00  0.0000E+00  0.0000E+00  0.0000E+00  0.0000E+00  0.0000E+00  0.0000E+00  0.0000E+00  0.0000E+00  0.0000E+00  0.0000E+00  0.0000E+00  0.0000E+00  0.0000E+00  0.0000E+00  0.0000E+00  0.0000E+00
    -14.730  0.0000E+00  0.0000E+00  0.0000E+00  0.0000E+00  0.0000E+00  0.0000E+00  0.0000E+00  0.0000E+00  0.0000E+00  0.0000E+00  0.0000E+00  0.0000E+00  0.0000E+00  0.0000E+00  0.0000E+00  0.0000E+00  0.0000E+00  0.0000E+00
    -14.662  0.0000E+00  0.0000E+00  0.0000E+00  0.0000E+00  0.0000E+00  0.0000E+00  0.0000E+00  0.0000E+00  0.0000E+00  0.0000E+00  0.0000E+00  0.0000E+00  0.0000E+00  0.0000E+00  0.0000E+00  0.0000E+00  0.0000E+00  0.0000E+00
    -14.593  0.0000E+00  0.0000E+00  0.0000E+00  0.0000E+00  0.0000E+00  0.0000E+00  0.0000E+00  0.0000E+00  0.0000E+00  0.0000E+00  0.0000E+00  0.0000E+00  0.0000E+00  0.0000E+00  0.0000E+00  0.0000E+00  0.0000E+00  0.0000E+00
    -14.524  0.0000E+00  0.0000E+00  0.0000E+00  0.0000E+00  0.0000E+00  0.0000E+00  0.0000E+00  0.0000E+00  0.0000E+00  0.0000E+00  0.0000E+00  0.0000E+00  0.0000E+00  0.0000E+00  0.0000E+00  0.0000E+00  0.0000E+00  0.0000E+00