    8    8  100    2
  0.2122975E+03  0.7002000E-09  0.7002000E-09  0.4000000E-08  0.2000000E-16
  1.000000000000000E-004
  CAR 
 monolayer-CrI3                          
     54     16     38
 
  0.0000000E+00  0.0000000E+00  0.0000000E+00  0.8264463E-02
    1      -17.010283    -17.031997   1.000000   1.000000
    2      -16.265540    -16.332055   1.000000   1.000000
    3      -16.060448    -16.126021   1.000000   1.000000
    4      -16.060448    -16.126021   1.000000   1.000000
    5      -15.904624    -15.968503   1.000000   1.000000
    6      -15.904624    -15.968503   1.000000   1.000000
    7       -8.766394     -8.489755   1.000000   1.000000
    8       -8.155755     -7.926957   1.000000   1.000000
    9       -7.624475     -7.480025   1.000000   1.000000
   10       -7.624475     -7.480025   1.000000   1.000000
   11       -7.545993     -7.300292   1.000000   1.000000
   12       -7.545993     -7.290367   1.000000   1.000000
   13       -7.328418     -7.290367   1.000000   1.000000
   14       -6.929659     -6.397218   1.000000   1.000000
   15       -6.929659     -6.363159   1.000000   1.000000
   16       -6.639206     -6.363159   1.000000   1.000000
   17       -6.410178     -5.936053   1.000000   1.000000
   18       -6.410178     -5.936053   1.000000   1.000000
   19       -5.770093     -5.753695   1.000000   1.000000
   20       -5.441850     -5.345795   1.000000   1.000000
   21       -5.441850     -5.045908   1.000000   1.000000
   22       -5.331525     -5.045908   1.000000   1.000000
   23       -5.294916     -4.594261   1.000000   1.000000
   24       -5.046476     -4.594261   1.000000   1.000000
   25       -5.046475     -2.296309   1.000000   0.000000
   26       -4.891991     -2.282438   1.000000   0.000000
   27       -4.795502     -2.282437   1.000000   0.000000
   28       -4.795502     -2.196641   1.000000   0.000000
   29       -4.358711     -1.995671   1.000000   0.000000
   30       -4.358711     -1.995671   1.000000   0.000000
   31       -3.141635     -1.663337   0.000000   0.000000
   32       -3.141635     -1.663337   0.000000   0.000000
   33       -2.732798     -1.361829   0.000000   0.000000
   34       -2.732798     -1.361829   0.000000   0.000000
   35        0.320229      0.471861   0.000000   0.000000
   36        0.563837      1.041752   0.000000   0.000000
   37        1.024548      1.216270   0.000000   0.000000
   38        1.214835      1.399095   0.000000   0.000000
 
  0.9090909E-01 -0.9639842E-17  0.0000000E+00  0.4958678E-01
    1      -16.994570    -17.016817   1.000000   1.000000
    2      -16.257012    -16.323503   1.000000   1.000000
    3      -16.081771    -16.146195   1.000000   1.000000
    4      -16.066689    -16.132275   1.000000   1.000000
    5      -15.907807    -15.971726   1.000000   1.000000
    6      -15.906710    -15.970434   1.000000   1.000000
    7       -8.753971     -8.481890   1.000000   1.000000
    8       -8.150380     -7.921830   1.000000   1.000000
    9       -7.634716     -7.489928   1.000000   1.000000
   10       -7.589983     -7.454154   1.000000   1.000000
   11       -7.589823     -7.430372   1.000000   1.000000
   12       -7.559972     -7.312253   1.000000   1.000000
   13       -7.264900     -7.091101   1.000000   1.000000
   14       -6.949947     -6.403247   1.000000   1.000000
   15       -6.930920     -6.373272   1.000000   1.000000
   16       -6.565104     -6.315280   1.000000   1.000000
   17       -6.414892     -5.946375   1.000000   1.000000
   18       -6.369982     -5.921586   1.000000   1.000000
   19       -5.783697     -5.726711   1.000000   1.000000
   20       -5.520619     -5.358622   1.000000   1.000000
   21       -5.499671     -5.064836   1.000000   1.000000
   22       -5.282899     -5.033070   1.000000   1.000000
   23       -5.219682     -4.722587   1.000000   1.000000
   24       -5.123902     -4.626305   1.000000   1.000000
   25       -5.060797     -2.328082   1.000000   0.000000
   26       -4.876682     -2.260210   1.000000   0.000000
   27       -4.796755     -2.226867   1.000000   0.000000
   28       -4.788271     -2.185591   1.000000   0.000000
   29       -4.396020     -2.004900   1.000000   0.000000
   30       -4.349575     -2.003963   1.000000   0.000000
   31       -3.140698     -1.659132   0.000000   0.000000
   32       -3.134908     -1.656168   0.000000   0.000000
   33       -2.792221     -1.411765   0.000000   0.000000
   34       -2.744162     -1.375467   0.000000   0.000000
   35        0.399457      0.542670   0.000000   0.000000
   36        0.584254      1.074476   0.000000   0.000000
   37        1.061051      1.226456   0.000000   0.000000
   38        1.335627      1.489419   0.000000   0.000000
 
  0.1818182E+00 -0.1927968E-16  0.0000000E+00  0.4958678E-01
    1      -16.948578    -16.972401   1.000000   1.000000
    2      -16.232339    -16.298763   1.000000   1.000000
    3      -16.142046    -16.203300   1.000000   1.000000
    4      -16.082550    -16.148177   1.000000   1.000000
    5      -15.919093    -15.983122   1.000000   1.000000
    6      -15.913052    -15.976326   1.000000   1.000000
    7       -8.717566     -8.456337   1.000000   1.000000
    8       -8.137553     -7.909081   1.000000   1.000000
    9       -7.662178     -7.564964   1.000000   1.000000
   10       -7.645685     -7.502869   1.000000   1.000000
   11       -7.596898     -7.337169   1.000000   1.000000
   12       -7.467875     -7.300260   1.000000   1.000000
   13       -7.154012     -6.858136   1.000000   1.000000
   14       -6.998331     -6.513366   1.000000   1.000000
   15       -6.936290     -6.400558   1.000000   1.000000
   16       -6.437972     -6.113277   1.000000   1.000000
   17       -6.383079     -5.975580   1.000000   1.000000
   18       -6.262318     -5.892951   1.000000   1.000000
   19       -5.845904     -5.668063   1.000000   1.000000
   20       -5.630697     -5.378389   1.000000   1.000000
   21       -5.566253     -5.141654   1.000000   1.000000
   22       -5.375456     -5.020551   1.000000   1.000000
   23       -5.200751     -5.005896   1.000000   1.000000
   24       -5.100624     -4.702946   1.000000   1.000000
   25       -5.080460     -2.346105   1.000000   0.000000
   26       -4.854081     -2.231905   1.000000   0.000000
   27       -4.799194     -2.206235   1.000000   0.000000
   28       -4.775635     -2.107345   1.000000   0.000000
   29       -4.468611     -2.025164   1.000000   0.000000
   30       -4.335795     -2.019437   1.000000   0.000000
   31       -3.137010     -1.647472   0.000000   0.000000
   32       -3.116177     -1.635846   0.000000   0.000000
   33       -2.915964     -1.515977   0.000000   0.000000
   34       -2.782476     -1.413251   0.000000   0.000000
   35        0.600069      0.728608   0.000000   0.000000
   36        0.624825      1.162458   0.000000   0.000000
   37        1.145614      1.231950   0.000000   0.000000
   38        1.557937      1.593829   0.000000   0.000000
 
  0.2727273E+00 -0.3499279E-16  0.0000000E+00  0.4958678E-01
    1      -16.876123    -16.902454   1.000000   1.000000
    2      -16.232204    -16.288912   1.000000   1.000000
    3      -16.194316    -16.260655   1.000000   1.000000
    4      -16.101759    -16.167439   1.000000   1.000000
    5      -15.941280    -16.005454   1.000000   1.000000
    6      -15.922243    -15.984912   1.000000   1.000000
    7       -8.667579     -8.418503   1.000000   1.000000
    8       -8.116411     -7.886885   1.000000   1.000000
    9       -7.703759     -7.635828   1.000000   1.000000
   10       -7.655239     -7.487728   1.000000   1.000000
   11       -7.563953     -7.306565   1.000000   1.000000
   12       -7.344611     -7.141537   1.000000   1.000000
   13       -7.140957     -6.681496   1.000000   1.000000
   14       -6.961955     -6.611787   1.000000   1.000000
   15       -6.939718     -6.432577   1.000000   1.000000
   16       -6.474028     -6.024224   1.000000   1.000000
   17       -6.222188     -5.879811   1.000000   1.000000
   18       -6.127137     -5.864173   1.000000   1.000000
   19       -5.970673     -5.606093   1.000000   1.000000
   20       -5.705112     -5.491306   1.000000   1.000000
   21       -5.620834     -5.406520   1.000000   1.000000
   22       -5.590429     -5.140264   1.000000   1.000000
   23       -5.204554     -4.977154   1.000000   1.000000
   24       -5.110865     -4.769157   1.000000   1.000000
   25       -4.982346     -2.364632   1.000000   0.000000
   26       -4.832203     -2.286280   1.000000   0.000000
   27       -4.799328     -2.170581   1.000000   0.000000
   28       -4.762085     -2.035236   1.000000   0.000000
   29       -4.533361     -2.030577   1.000000   0.000000
   30       -4.335811     -2.011246   1.000000   0.000000
   31       -3.129497     -1.633481   0.000000   0.000000
   32       -3.091617     -1.608758   0.000000   0.000000
   33       -3.005908     -1.597217   0.000000   0.000000
   34       -2.847306     -1.463320   0.000000   0.000000
   35        0.603130      0.979199   0.000000   0.000000
   36        0.868408      1.154143   0.000000   0.000000
   37        1.264815      1.293305   0.000000   0.000000
   38        1.430336      1.765579   0.000000   0.000000
 
  0.3636364E+00 -0.3855937E-16  0.0000000E+00  0.4958678E-01
    1      -16.785748    -16.815175   1.000000   1.000000
    2      -16.338316    -16.390077   1.000000   1.000000
    3      -16.148101    -16.214436   1.000000   1.000000
    4      -16.118156    -16.183841   1.000000   1.000000
    5      -15.974318    -16.038598   1.000000   1.000000
    6      -15.931120    -15.993250   1.000000   1.000000
    7       -8.627122     -8.387353   1.000000   1.000000
    8       -8.076509     -7.846396   1.000000   1.000000
    9       -7.737026     -7.682076   1.000000   1.000000
   10       -7.624262     -7.414994   1.000000   1.000000
   11       -7.462693     -7.220055   1.000000   1.000000
   12       -7.266776     -6.998323   1.000000   1.000000
   13       -7.235732     -6.875051   1.000000   1.000000
   14       -6.925843     -6.447170   1.000000   1.000000
   15       -6.822404     -6.387740   1.000000   1.000000
   16       -6.559867     -6.124990   1.000000   1.000000
   17       -6.253196     -5.889364   1.000000   1.000000
   18       -6.154553     -5.865016   1.000000   1.000000
   19       -5.996164     -5.614432   1.000000   1.000000
   20       -5.751034     -5.593133   1.000000   1.000000
   21       -5.646990     -5.430244   1.000000   1.000000
   22       -5.560214     -5.199139   1.000000   1.000000
   23       -5.241143     -4.982640   1.000000   1.000000
   24       -5.117429     -4.760808   1.000000   1.000000
   25       -4.997671     -2.391223   1.000000   0.000000
   26       -4.817263     -2.355147   1.000000   0.000000
   27       -4.788264     -2.189861   1.000000   0.000000
   28       -4.690140     -2.013925   1.000000   0.000000
   29       -4.588631     -2.002489   1.000000   0.000000
   30       -4.349916     -1.968215   1.000000   0.000000
   31       -3.116978     -1.653295   0.000000   0.000000
   32       -3.097937     -1.626266   0.000000   0.000000
   33       -2.994654     -1.548637   0.000000   0.000000
   34       -2.923072     -1.505033   0.000000   0.000000
   35        0.478208      0.983307   0.000000   0.000000
   36        1.162347      1.264499   0.000000   0.000000
   37        1.394550      1.446308   0.000000   0.000000
   38        1.396957      1.781368   0.000000   0.000000
 
  0.4545455E+00 -0.8389808E-16  0.0000000E+00  0.4958678E-01
    1      -16.702241    -16.734187   1.000000   1.000000
    2      -16.431025    -16.479172   1.000000   1.000000
    3      -16.127662    -16.193588   1.000000   1.000000
    4      -16.104932    -16.171246   1.000000   1.000000
    5      -16.009951    -16.074077   1.000000   1.000000
    6      -15.936497    -15.998315   1.000000   1.000000
    7       -8.609214     -8.373826   1.000000   1.000000
    8       -8.034823     -7.805706   1.000000   1.000000
    9       -7.755445     -7.706181   1.000000   1.000000
   10       -7.573976     -7.288010   1.000000   1.000000
   11       -7.342980     -7.143902   1.000000   1.000000
   12       -7.323458     -7.070940   1.000000   1.000000
   13       -7.240615     -6.863341   1.000000   1.000000
   14       -6.903165     -6.466274   1.000000   1.000000
   15       -6.703664     -6.330355   1.000000   1.000000
   16       -6.687842     -6.219951   1.000000   1.000000
   17       -6.346964     -5.990564   1.000000   1.000000
   18       -6.304204     -5.903485   1.000000   1.000000
   19       -5.948587     -5.676994   1.000000   1.000000
   20       -5.734804     -5.456675   1.000000   1.000000
   21       -5.566500     -5.385779   1.000000   1.000000
   22       -5.487218     -5.248781   1.000000   1.000000
   23       -5.283876     -5.019331   1.000000   1.000000
   24       -5.117897     -4.717056   1.000000   1.000000
   25       -5.087220     -2.413499   1.000000   0.000000
   26       -4.815001     -2.402605   1.000000   0.000000
   27       -4.764859     -2.212494   1.000000   0.000000
   28       -4.632712     -2.000164   1.000000   0.000000
   29       -4.603184     -1.987100   1.000000   0.000000
   30       -4.372081     -1.948351   1.000000   0.000000
   31       -3.111839     -1.670222   0.000000   0.000000
   32       -3.100761     -1.627768   0.000000   0.000000
   33       -2.981643     -1.523575   0.000000   0.000000
   34       -2.950460     -1.500926   0.000000   0.000000
   35        0.358689      0.852849   0.000000   0.000000
   36        1.392682      1.571535   0.000000   0.000000
   37        1.489912      1.573499   0.000000   0.000000
   38        1.516554      1.629501   0.000000   0.000000
 
  0.9090909E-01  0.9090909E-01  0.0000000E+00  0.4958678E-01
    1      -16.963698    -16.987002   1.000000   1.000000
    2      -16.240410    -16.306855   1.000000   1.000000
    3      -16.121107    -16.183394   1.000000   1.000000
    4      -16.079316    -16.144888   1.000000   1.000000
    5      -15.915355    -15.979303   1.000000   1.000000
    6      -15.910548    -15.974035   1.000000   1.000000
    7       -8.728408     -8.463857   1.000000   1.000000
    8       -8.142173     -7.913835   1.000000   1.000000
    9       -7.658395     -7.535932   1.000000   1.000000
   10       -7.641247     -7.507676   1.000000   1.000000
   11       -7.580940     -7.337249   1.000000   1.000000
   12       -7.503003     -7.335520   1.000000   1.000000
   13       -7.180425     -6.920913   1.000000   1.000000
   14       -6.993697     -6.479977   1.000000   1.000000
   15       -6.926977     -6.389454   1.000000   1.000000
   16       -6.449493     -6.175111   1.000000   1.000000
   17       -6.417037     -5.974117   1.000000   1.000000
   18       -6.297617     -5.891993   1.000000   1.000000
   19       -5.825951     -5.686342   1.000000   1.000000
   20       -5.601104     -5.378728   1.000000   1.000000
   21       -5.553735     -5.094652   1.000000   1.000000
   22       -5.261360     -5.023998   1.000000   1.000000
   23       -5.254961     -4.928956   1.000000   1.000000
   24       -5.128451     -4.687763   1.000000   1.000000
   25       -5.081096     -2.332620   1.000000   0.000000
   26       -4.858056     -2.265269   1.000000   0.000000
   27       -4.789678     -2.163384   1.000000   0.000000
   28       -4.786988     -2.159069   1.000000   0.000000
   29       -4.448319     -2.018818   1.000000   0.000000
   30       -4.337644     -2.015702   1.000000   0.000000
   31       -3.138426     -1.653750   0.000000   0.000000
   32       -3.122309     -1.640500   0.000000   0.000000
   33       -2.889688     -1.486742   0.000000   0.000000
   34       -2.761187     -1.399923   0.000000   0.000000
   35        0.538804      0.669904   0.000000   0.000000
   36        0.615262      1.134042   0.000000   0.000000
   37        1.118661      1.236526   0.000000   0.000000
   38        1.519449      1.559153   0.000000   0.000000
 
  0.1818182E+00  0.9090909E-01  0.0000000E+00  0.9917355E-01
    1      -16.904308    -16.929670   1.000000   1.000000
    2      -16.209039    -16.275404   1.000000   1.000000
    3      -16.193634    -16.252061   1.000000   1.000000
    4      -16.100081    -16.165611   1.000000   1.000000
    5      -15.931966    -15.996033   1.000000   1.000000
    6      -15.918134    -15.981179   1.000000   1.000000
    7       -8.678335     -8.424707   1.000000   1.000000
    8       -8.130759     -7.901815   1.000000   1.000000
    9       -7.684587     -7.601735   1.000000   1.000000
   10       -7.679461     -7.520238   1.000000   1.000000
   11       -7.575704     -7.331909   1.000000   1.000000
   12       -7.381988     -7.187881   1.000000   1.000000
   13       -7.102561     -6.696883   1.000000   1.000000
   14       -7.043585     -6.618992   1.000000   1.000000
   15       -6.904184     -6.413252   1.000000   1.000000
   16       -6.457144     -6.029216   1.000000   1.000000
   17       -6.271954     -5.955041   1.000000   1.000000
   18       -6.183425     -5.854322   1.000000   1.000000
   19       -5.933490     -5.645804   1.000000   1.000000
   20       -5.675550     -5.464355   1.000000   1.000000
   21       -5.589886     -5.225273   1.000000   1.000000
   22       -5.477608     -5.121440   1.000000   1.000000
   23       -5.265137     -4.991738   1.000000   1.000000
   24       -5.093675     -4.778144   1.000000   1.000000
   25       -5.021929     -2.339625   1.000000   0.000000
   26       -4.839985     -2.285653   1.000000   0.000000
   27       -4.796452     -2.149256   1.000000   0.000000
   28       -4.762639     -2.090620   1.000000   0.000000
   29       -4.508375     -2.024864   1.000000   0.000000
   30       -4.331082     -2.016328   1.000000   0.000000
   31       -3.132841     -1.648548   0.000000   0.000000
   32       -3.099552     -1.610313   0.000000   0.000000
   33       -3.002709     -1.568474   0.000000   0.000000
   34       -2.797303     -1.441582   0.000000   0.000000
   35        0.635177      0.882275   0.000000   0.000000
   36        0.764630      1.211965   0.000000   0.000000
   37        1.211731      1.242065   0.000000   0.000000
   38        1.394440      1.696971   0.000000   0.000000
 
  0.2727273E+00  0.9090909E-01  0.0000000E+00  0.9917355E-01
    1      -16.821942    -16.850183   1.000000   1.000000
    2      -16.290380    -16.343978   1.000000   1.000000
    3      -16.166715    -16.233016   1.000000   1.000000
    4      -16.120789    -16.186256   1.000000   1.000000
    5      -15.958868    -16.023138   1.000000   1.000000
    6      -15.927612    -15.990121   1.000000   1.000000
    7       -8.620307     -8.377057   1.000000   1.000000
    8       -8.107985     -7.877611   1.000000   1.000000
    9       -7.716011     -7.647325   1.000000   1.000000
   10       -7.665776     -7.486039   1.000000   1.000000
   11       -7.515811     -7.269024   1.000000   1.000000
   12       -7.285020     -7.043428   1.000000   1.000000
   13       -7.193864     -6.804979   1.000000   1.000000
   14       -6.985135     -6.471626   1.000000   1.000000
   15       -6.809631     -6.416804   1.000000   1.000000
   16       -6.524943     -6.114038   1.000000   1.000000
   17       -6.264719     -5.843985   1.000000   1.000000
   18       -6.084121     -5.817274   1.000000   1.000000
   19       -5.991476     -5.707002   1.000000   1.000000
   20       -5.718021     -5.535557   1.000000   1.000000
   21       -5.651566     -5.365251   1.000000   1.000000
   22       -5.573562     -5.165239   1.000000   1.000000
   23       -5.287394     -4.977431   1.000000   1.000000
   24       -5.103891     -4.819633   1.000000   1.000000
   25       -5.000681     -2.368485   1.000000   0.000000
   26       -4.820509     -2.325806   1.000000   0.000000
   27       -4.776035     -2.166530   1.000000   0.000000
   28       -4.717633     -2.062382   1.000000   0.000000
   29       -4.561521     -2.006338   1.000000   0.000000
   30       -4.340627     -1.980351   1.000000   0.000000
   31       -3.122036     -1.650818   0.000000   0.000000
   32       -3.089429     -1.606516   0.000000   0.000000
   33       -3.039667     -1.566527   0.000000   0.000000
   34       -2.850745     -1.485761   0.000000   0.000000
   35        0.565722      1.083431   0.000000   0.000000
   36        1.026025      1.139442   0.000000   0.000000
   37        1.206524      1.380236   0.000000   0.000000
   38        1.382502      1.656742   0.000000   0.000000
 
  0.3636364E+00  0.9090909E-01  0.0000000E+00  0.9917355E-01
    1      -16.729791    -16.761138   1.000000   1.000000
    2      -16.393597    -16.442612   1.000000   1.000000
    3      -16.135705    -16.201399   1.000000   1.000000
    4      -16.120207    -16.186256   1.000000   1.000000
    5      -15.994019    -16.058383   1.000000   1.000000
    6      -15.935257    -15.997358   1.000000   1.000000
    7       -8.581307     -8.344761   1.000000   1.000000
    8       -8.065737     -7.835773   1.000000   1.000000
    9       -7.738197     -7.677465   1.000000   1.000000
   10       -7.618316     -7.388887   1.000000   1.000000
   11       -7.401830     -7.170856   1.000000   1.000000
   12       -7.304425     -7.009215   1.000000   1.000000
   13       -7.247619     -6.931060   1.000000   1.000000
   14       -6.944950     -6.446699   1.000000   1.000000
   15       -6.752370     -6.311621   1.000000   1.000000
   16       -6.583910     -6.219050   1.000000   1.000000
   17       -6.367041     -5.998083   1.000000   1.000000
   18       -6.134740     -5.855616   1.000000   1.000000
   19       -5.982827     -5.570843   1.000000   1.000000
   20       -5.760839     -5.523175   1.000000   1.000000
   21       -5.582845     -5.402473   1.000000   1.000000
   22       -5.506818     -5.214096   1.000000   1.000000
   23       -5.324745     -5.002259   1.000000   1.000000
   24       -5.114785     -4.778148   1.000000   1.000000
   25       -5.085493     -2.401183   1.000000   0.000000
   26       -4.789328     -2.371463   1.000000   0.000000
   27       -4.764340     -2.198441   1.000000   0.000000
   28       -4.633462     -2.043513   1.000000   0.000000
   29       -4.603632     -1.984180   1.000000   0.000000
   30       -4.362671     -1.956349   1.000000   0.000000
   31       -3.116302     -1.657966   0.000000   0.000000
   32       -3.095596     -1.612049   0.000000   0.000000
   33       -3.010487     -1.524899   0.000000   0.000000
   34       -2.893207     -1.503997   0.000000   0.000000
   35        0.426542      0.918483   0.000000   0.000000
   36        1.155641      1.399754   0.000000   0.000000
   37        1.331587      1.515977   0.000000   0.000000
   38        1.517129      1.622855   0.000000   0.000000
 
  0.4545455E+00  0.9090909E-01  0.0000000E+00  0.4958678E-01
    1      -16.675480    -16.708317   1.000000   1.000000
    2      -16.452059    -16.499037   1.000000   1.000000
    3      -16.140916    -16.206475   1.000000   1.000000
    4      -16.092046    -16.158459   1.000000   1.000000
    5      -16.018239    -16.082400   1.000000   1.000000
    6      -15.938157    -16.000108   1.000000   1.000000
    7       -8.569565     -8.335080   1.000000   1.000000
    8       -8.040338     -7.811606   1.000000   1.000000
    9       -7.746350     -7.688269   1.000000   1.000000
   10       -7.580886     -7.274505   1.000000   1.000000
   11       -7.368028     -7.171598   1.000000   1.000000
   12       -7.319601     -7.113744   1.000000   1.000000
   13       -7.239044     -6.845275   1.000000   1.000000
   14       -6.918269     -6.541957   1.000000   1.000000
   15       -6.863851     -6.368765   1.000000   1.000000
   16       -6.484533     -6.118460   1.000000   1.000000
   17       -6.405890     -6.037414   1.000000   1.000000
   18       -6.245784     -5.866640   1.000000   1.000000
   19       -5.962976     -5.634231   1.000000   1.000000
   20       -5.758168     -5.475488   1.000000   1.000000
   21       -5.525215     -5.334869   1.000000   1.000000
   22       -5.453081     -5.260285   1.000000   1.000000
   23       -5.351383     -5.021030   1.000000   1.000000
   24       -5.149064     -4.749633   1.000000   1.000000
   25       -5.118100     -2.410555   1.000000   0.000000
   26       -4.783177     -2.396688   1.000000   0.000000
   27       -4.749049     -2.211840   1.000000   0.000000
   28       -4.642360     -2.037093   1.000000   0.000000
   29       -4.571076     -1.972131   1.000000   0.000000
   30       -4.380153     -1.954423   1.000000   0.000000
   31       -3.120915     -1.660996   0.000000   0.000000
   32       -3.083793     -1.612287   0.000000   0.000000
   33       -3.009628     -1.527953   0.000000   0.000000
   34       -2.898322     -1.482862   0.000000   0.000000
   35        0.359227      0.847285   0.000000   0.000000
   36        1.160783      1.485778   0.000000   0.000000
   37        1.488102      1.596475   0.000000   0.000000
   38        1.564399      1.734084   0.000000   0.000000
 
  0.1818182E+00  0.1818182E+00  0.0000000E+00  0.4958678E-01
    1      -16.834431    -16.862271   1.000000   1.000000
    2      -16.268681    -16.322885   1.000000   1.000000
    3      -16.173264    -16.239560   1.000000   1.000000
    4      -16.127535    -16.192839   1.000000   1.000000
    5      -15.952888    -16.017138   1.000000   1.000000
    6      -15.926042    -15.988814   1.000000   1.000000
    7       -8.606229     -8.361058   1.000000   1.000000
    8       -8.128671     -7.898330   1.000000   1.000000
    9       -7.700357     -7.609902   1.000000   1.000000
   10       -7.695474     -7.540476   1.000000   1.000000
   11       -7.536125     -7.294258   1.000000   1.000000
   12       -7.290414     -7.052607   1.000000   1.000000
   13       -7.174669     -6.785362   1.000000   1.000000
   14       -7.019939     -6.491428   1.000000   1.000000
   15       -6.778537     -6.398642   1.000000   1.000000
   16       -6.522463     -6.135951   1.000000   1.000000
   17       -6.278629     -5.825075   1.000000   1.000000
   18       -6.112055     -5.802478   1.000000   1.000000
   19       -5.962459     -5.749621   1.000000   1.000000
   20       -5.679669     -5.546483   1.000000   1.000000
   21       -5.616339     -5.206409   1.000000   1.000000
   22       -5.542127     -5.179697   1.000000   1.000000
   23       -5.378016     -4.982748   1.000000   1.000000
   24       -5.092456     -4.884360   1.000000   1.000000
   25       -5.017231     -2.346601   1.000000   0.000000
   26       -4.836476     -2.320383   1.000000   0.000000
   27       -4.739200     -2.126863   1.000000   0.000000
   28       -4.732750     -2.116328   1.000000   0.000000
   29       -4.548183     -2.019344   1.000000   0.000000
   30       -4.335314     -1.980100   1.000000   0.000000
   31       -3.123372     -1.655258   0.000000   0.000000
   32       -3.075315     -1.589578   0.000000   0.000000
   33       -3.074755     -1.571021   0.000000   0.000000
   34       -2.807238     -1.472194   0.000000   0.000000
   35        0.624842      1.087980   0.000000   0.000000
   36        0.962221      1.158061   0.000000   0.000000
   37        1.095224      1.347888   0.000000   0.000000
   38        1.361039      1.536582   0.000000   0.000000
 
  0.2727273E+00  0.1818182E+00  0.0000000E+00  0.9917355E-01
    1      -16.746373    -16.777386   1.000000   1.000000
    2      -16.361475    -16.410873   1.000000   1.000000
    3      -16.152397    -16.217704   1.000000   1.000000
    4      -16.129749    -16.195767   1.000000   1.000000
    5      -15.981397    -16.045957   1.000000   1.000000
    6      -15.935203    -15.997626   1.000000   1.000000
    7       -8.522905     -8.285070   1.000000   1.000000
    8       -8.117234     -7.885894   1.000000   1.000000
    9       -7.710452     -7.615151   1.000000   1.000000
   10       -7.674870     -7.504736   1.000000   1.000000
   11       -7.456406     -7.208749   1.000000   1.000000
   12       -7.297985     -6.985788   1.000000   1.000000
   13       -7.251280     -6.962452   1.000000   1.000000
   14       -6.982935     -6.415323   1.000000   1.000000
   15       -6.714802     -6.338536   1.000000   1.000000
   16       -6.563631     -6.213859   1.000000   1.000000
   17       -6.371052     -6.018028   1.000000   1.000000
   18       -6.064778     -5.780532   1.000000   1.000000
   19       -5.914832     -5.621147   1.000000   1.000000
   20       -5.746827     -5.461569   1.000000   1.000000
   21       -5.623552     -5.306638   1.000000   1.000000
   22       -5.519122     -5.191182   1.000000   1.000000
   23       -5.409377     -4.985660   1.000000   1.000000
   24       -5.114616     -4.905812   1.000000   1.000000
   25       -5.104585     -2.387212   1.000000   0.000000
   26       -4.794445     -2.326649   1.000000   0.000000
   27       -4.715607     -2.170229   1.000000   0.000000
   28       -4.651246     -2.108684   1.000000   0.000000
   29       -4.579529     -2.002980   1.000000   0.000000
   30       -4.355298     -1.958797   1.000000   0.000000
   31       -3.119852     -1.644980   0.000000   0.000000
   32       -3.086610     -1.590658   0.000000   0.000000
   33       -3.044068     -1.536038   0.000000   0.000000
   34       -2.820771     -1.482899   0.000000   0.000000
   35        0.538614      1.031102   0.000000   0.000000
   36        0.892516      1.253707   0.000000   0.000000
   37        1.218796      1.391552   0.000000   0.000000
   38        1.495378      1.549389   0.000000   0.000000
 
  0.3636364E+00  0.1818182E+00  0.0000000E+00  0.9917355E-01
    1      -16.661090    -16.695021   1.000000   1.000000
    2      -16.450027    -16.495552   1.000000   1.000000
    3      -16.166336    -16.231449   1.000000   1.000000
    4      -16.088682    -16.154808   1.000000   1.000000