       N       E                     dE             d eps       ncg     rms          rms(c)
DAV:   1     0.398462365250E+03    0.39846E+03   -0.11210E+04  2536   0.663E+02
DAV:   2     0.491738216235E+02   -0.34929E+03   -0.33203E+03  3662   0.195E+02
DAV:   3    -0.284292908151E+02   -0.77603E+02   -0.76494E+02  3146   0.884E+01
DAV:   4    -0.334685815460E+02   -0.50393E+01   -0.50098E+01  3638   0.360E+01
DAV:   5    -0.335611127813E+02   -0.92531E-01   -0.92374E-01  3474   0.478E+00    0.166E+01
DAV:   6    -0.313568521665E+02    0.22043E+01   -0.32868E+01  3444   0.593E+01    0.256E+01
DAV:   7    -0.262842681063E+02    0.50726E+01   -0.13828E+01  3428   0.739E+01    0.980E+00
DAV:   8    -0.246415832363E+02    0.16427E+01   -0.45539E+00  3086   0.993E+00    0.437E+00
DAV:   9    -0.240540062841E+02    0.58758E+00   -0.76883E-01  3248   0.836E+00    0.297E+00
DAV:  10    -0.253517815639E+02   -0.12978E+01   -0.34203E-01  3332   0.413E+00    0.223E+00
DAV:  11    -0.265294784759E+02   -0.11777E+01   -0.32489E-01  3252   0.233E+00    0.176E+00
DAV:  12    -0.281182357649E+02   -0.15888E+01   -0.71216E-01  2990   0.306E+00    0.144E+00
DAV:  13    -0.296524301238E+02   -0.15342E+01   -0.82048E-01  2670   0.268E+00    0.111E+00
DAV:  14    -0.306257581595E+02   -0.97333E+00   -0.44952E-01  2626   0.205E+00    0.885E-01
DAV:  15    -0.309140310900E+02   -0.28827E+00   -0.10991E-01  2680   0.127E+00    0.708E-01
DAV:  16    -0.310709947569E+02   -0.15696E+00   -0.78126E-02  2616   0.103E+00    0.598E-01
DAV:  17    -0.311769173196E+02   -0.10592E+00   -0.34032E-02  2774   0.803E-01    0.494E-01
DAV:  18    -0.312136648091E+02   -0.36747E-01   -0.25796E-02  2624   0.570E-01    0.388E-01
DAV:  19    -0.314132329919E+02   -0.19957E+00   -0.15076E-02  2912   0.473E-01    0.252E-01
DAV:  20    -0.314483048736E+02   -0.35072E-01   -0.13201E-03  2830   0.222E-01    0.188E-01
DAV:  21    -0.314527386730E+02   -0.44338E-02   -0.98137E-04  2634   0.167E-01    0.133E-01
DAV:  22    -0.314544708801E+02   -0.17322E-02   -0.49765E-04  2724   0.130E-01    0.937E-02
DAV:  23    -0.314534085933E+02    0.10623E-02   -0.50734E-04  2686   0.176E-01    0.601E-02
DAV:  24    -0.314655759362E+02   -0.12167E-01   -0.30687E-04  2642   0.900E-02    0.414E-02
DAV:  25    -0.314789760438E+02   -0.13400E-01   -0.37041E-04  2432   0.983E-02    0.173E-02
DAV:  26    -0.314849861034E+02   -0.60101E-02   -0.17458E-04  2444   0.709E-02    0.999E-03
DAV:  27    -0.314864767577E+02   -0.14907E-02   -0.34607E-05  2546   0.368E-02    0.721E-03
DAV:  28    -0.314871308535E+02   -0.65410E-03   -0.10938E-05  2624   0.205E-02    0.351E-03
DAV:  29    -0.314873279738E+02   -0.19712E-03   -0.47190E-06  2588   0.130E-02    0.159E-03
DAV:  30    -0.314873715397E+02   -0.43566E-04   -0.83665E-07  2666   0.507E-03    0.137E-03
DAV:  31    -0.314874283651E+02   -0.56825E-04   -0.95663E-07  2514   0.416E-03    0.772E-04
DAV:  32    -0.314874513468E+02   -0.22982E-04   -0.34071E-07  2474   0.282E-03    0.312E-04
DAV:  33    -0.314874586674E+02   -0.73206E-05   -0.85623E-08  2114   0.157E-03    0.267E-04
DAV:  34    -0.314874635240E+02   -0.48566E-05   -0.33406E-08  2026   0.902E-04    0.169E-04
DAV:  35    -0.314874667843E+02   -0.32603E-05   -0.33668E-08  1920   0.675E-04    0.123E-04
DAV:  36    -0.314874677361E+02   -0.95176E-06   -0.87006E-09  1854   0.430E-04    0.122E-04
DAV:  37    -0.314874683263E+02   -0.59020E-06   -0.36934E-09  1698   0.252E-04    0.643E-05
DAV:  38    -0.314874690754E+02   -0.74909E-06   -0.43985E-09  1710   0.244E-04    0.464E-05
DAV:  39    -0.314874693033E+02   -0.22794E-06   -0.22656E-09  1648   0.201E-04    0.401E-05
DAV:  40    -0.314874694432E+02   -0.13991E-06   -0.97923E-10  1708   0.152E-04    0.319E-05
DAV:  41    -0.314874696438E+02   -0.20058E-06   -0.63811E-10  1624   0.111E-04    0.160E-05
DAV:  42    -0.314874697494E+02   -0.10557E-06   -0.27848E-10  1588   0.876E-05    0.149E-05
DAV:  43    -0.314874698118E+02   -0.62425E-07   -0.63422E-11  1630   0.624E-05
   1 F= -.31487470E+02 E0= -.31487470E+02  d E =-.314875E+02  mag=     6.0000
       N       E                     dE             d eps       ncg     rms          rms(c)
DAV:   1    -0.314874698425E+02   -0.93162E-07    0.35471E-11  1696   0.414E-05    0.432E-06
DAV:   2    -0.314874698570E+02   -0.14468E-07    0.82163E-11  1666   0.272E-05    0.412E-06
DAV:   3    -0.314874698629E+02   -0.59031E-08    0.94747E-11  1756   0.177E-05    0.260E-06
DAV:   4    -0.314874698685E+02   -0.55834E-08    0.94805E-11  1636   0.150E-05    0.101E-06
DAV:   5    -0.314874698704E+02   -0.19254E-08    0.98846E-11  1660   0.104E-05    0.252E-06
DAV:   6    -0.314874698708E+02   -0.36198E-09    0.10103E-10  1714   0.807E-06
   2 F= -.31487470E+02 E0= -.31487470E+02  d E =-.589789E-07  mag=     6.0000
       N       E                     dE             d eps       ncg     rms          rms(c)
DAV:   1    -0.314874698707E+02   -0.31059E-09    0.99346E-11  1600   0.787E-06    0.103E-06
DAV:   2    -0.314874698707E+02    0.15461E-10    0.10203E-10  1630   0.586E-06    0.857E-07
DAV:   3    -0.314874698708E+02   -0.95952E-10    0.10431E-10  1570   0.332E-06    0.362E-07
DAV:   4    -0.314874698709E+02   -0.11050E-09    0.10470E-10  1570   0.219E-06    0.388E-07
DAV:   5    -0.314874698710E+02   -0.44110E-10    0.10339E-10  1522   0.188E-06    0.137E-07
DAV:   6    -0.314874698711E+02   -0.14688E-09    0.10406E-10  1462   0.120E-06
   3 F= -.31487470E+02 E0= -.31487470E+02  d E =-.593095E-07  mag=     6.0000
       N       E                     dE             d eps       ncg     rms          rms(c)
DAV:   1    -0.314874698714E+02   -0.39927E-09    0.92994E-11  1420   0.905E-06    0.781E-07
DAV:   2    -0.314874698713E+02    0.32287E-10    0.99495E-11  1582   0.419E-06    0.696E-07
DAV:   3    -0.314874698714E+02   -0.10459E-09    0.10543E-10  1462   0.279E-06    0.210E-07
DAV:   4    -0.314874698715E+02   -0.10641E-09    0.10089E-10  1390   0.173E-06    0.354E-07
DAV:   5    -0.314874698714E+02    0.80945E-10    0.99260E-11  1426   0.116E-06    0.162E-07
DAV:   6    -0.314874698714E+02    0.28194E-10    0.10156E-10  1432   0.643E-07
   4 F= -.31487470E+02 E0= -.31487470E+02  d E =-.596315E-07  mag=     6.0000
       N       E                     dE             d eps       ncg     rms          rms(c)
DAV:   1    -0.314874698714E+02    0.46839E-10    0.77964E-11  1420   0.178E-05    0.143E-06
DAV:   2    -0.314874698715E+02   -0.11005E-09    0.99481E-11  1426   0.723E-06    0.127E-06
DAV:   3    -0.314874698716E+02   -0.61391E-10    0.10442E-10  1408   0.451E-06    0.681E-07
DAV:   4    -0.314874698715E+02    0.35925E-10    0.10502E-10  1396   0.271E-06    0.552E-07
DAV:   5    -0.314874698717E+02   -0.11642E-09    0.10461E-10  1384   0.200E-06    0.135E-07
DAV:   6    -0.314874698715E+02    0.13597E-09    0.10197E-10  1390   0.123E-06
   5 F= -.31487470E+02 E0= -.31487470E+02  d E =-.597288E-07  mag=     6.0000
       N       E                     dE             d eps       ncg     rms          rms(c)
DAV:   1    -0.314874698715E+02    0.15552E-09   -0.72154E-12  1336   0.358E-05    0.280E-06
DAV:   2    -0.314874698718E+02   -0.30241E-09    0.89817E-11  1396   0.147E-05    0.213E-06
DAV:   3    -0.314874698719E+02   -0.71395E-10    0.10048E-10  1354   0.941E-06    0.634E-07
DAV:   4    -0.314874698719E+02   -0.15007E-10    0.10064E-10  1348   0.536E-06    0.808E-07
DAV:   5    -0.314874698719E+02   -0.61846E-10    0.10118E-10  1324   0.371E-06    0.515E-07
DAV:   6    -0.314874698719E+02    0.37289E-10    0.96144E-11  1372   0.222E-06
   6 F= -.31487470E+02 E0= -.31487470E+02  d E =-.601226E-07  mag=     6.0000
       N       E                     dE             d eps       ncg     rms          rms(c)
DAV:   1    -0.314874698716E+02    0.32060E-09   -0.34474E-10  1366   0.714E-05    0.557E-06
DAV:   2    -0.314874698724E+02   -0.81309E-09    0.61983E-11  1384   0.292E-05    0.365E-06
DAV:   3    -0.314874698725E+02   -0.47294E-10    0.92548E-11  1384   0.186E-05    0.175E-06
DAV:   4    -0.314874698725E+02   -0.12733E-10    0.96097E-11  1414   0.985E-06    0.916E-07
DAV:   5    -0.314874698725E+02    0.81855E-11    0.98682E-11  1318   0.703E-06    0.868E-07
DAV:   6    -0.314874698725E+02   -0.34106E-10    0.96798E-11  1306   0.418E-06
   7 F= -.31487470E+02 E0= -.31487470E+02  d E =-.607383E-07  mag=     6.0000
