 vasp.5.4.4.18Apr17-6-g9f103f2a35 (build Apr 25 2017 18:29:20) complex          
  
 executed on      IFC91_ompi_syO2 date 2018.05.09  14:41:45
 running on   16 total cores
 distrk:  each k-point on    4 cores,    4 groups
 distr:  one band on NCORES_PER_BAND=   2 cores,    2 groups


--------------------------------------------------------------------------------------------------------


 INCAR:
 POTCAR:    PAW_PBE Cr 06Sep2000                  
 POTCAR:    PAW_PBE I 08Apr2002                   

 ----------------------------------------------------------------------------- 
|                                                                             |
|           W    W    AA    RRRRR   N    N  II  N    N   GGGG   !!!           |
|           W    W   A  A   R    R  NN   N  II  NN   N  G    G  !!!           |
|           W    W  A    A  R    R  N N  N  II  N N  N  G       !!!           |
|           W WW W  AAAAAA  RRRRR   N  N N  II  N  N N  G  GGG   !            |
|           WW  WW  A    A  R   R   N   NN  II  N   NN  G    G                |
|           W    W  A    A  R    R  N    N  II  N    N   GGGG   !!!           |
|                                                                             |
|      You have enabled k-point parallelism (KPAR>1).                         |
|      This developmental code was originally  written by Paul Kent at ORNL,  |
|      and carefully double checked in Vienna.                                |
|      GW as well as linear response parallelism added by Martijn Marsman     |
|      and Georg Kresse.                                                      |
|      Carefully verify results versus KPAR=1.                                |
|      Report problems to Paul Kent and Vienna.                               |
|                                                                             |
 ----------------------------------------------------------------------------- 

 POTCAR:    PAW_PBE Cr 06Sep2000                  
   VRHFIN =Cr : d5 s1                                                           
   LEXCH  = PE                                                                  
   EATOM  =   276.8859 eV,   20.3505 Ry                                         
                                                                                
   TITEL  = PAW_PBE Cr 06Sep2000                                                
   LULTRA =        F    use ultrasoft PP ?                                      
   IUNSCR =        1    unscreen: 0-lin 1-nonlin 2-no                           
   RPACOR =    2.080    partial core radius                                     
   POMASS =   51.996; ZVAL   =    6.000    mass and valenz                      
   RCORE  =    2.500    outmost cutoff radius                                   
   RWIGS  =    2.500; RWIGS  =    1.323    wigner-seitz radius (au A)           
   ENMAX  =  227.080; ENMIN  =  170.310 eV                                      
   RCLOC  =    1.721    cutoff for local pot                                    
   LCOR   =        T    correct aug charges                                     
   LPAW   =        T    paw PP                                                  
   EAUG   =  402.108                                                            
   DEXC   =    0.000                                                            
   RMAX   =    2.552    core radius for proj-oper                               
   RAUG   =    1.300    factor for augmentation sphere                          
   RDEP   =    2.609    radius for radial grids                                 
   RDEPT  =    2.065    core radius for aug-charge                              
                                                                                
   Atomic configuration                                                         
    9 entries                                                                   
     n  l   j            E        occ.                                          
     1  0  0.50     -5880.4963   2.0000                                         
     2  0  0.50      -667.0865   2.0000                                         
     2  1  1.50      -560.6250   6.0000                                         
     3  0  0.50       -73.9860   2.0000                                         
     3  1  1.50       -45.4378   6.0000                                         
     3  2  2.50        -2.9137   5.0000                                         
     4  0  0.50        -4.0071   1.0000                                         
     4  1  0.50        -1.2789   0.0000                                         
     4  3  2.50        -1.3606   0.0000                                         
   Description                                                                  
     l       E           TYP  RCUT    TYP  RCUT                                 
     2     -2.9136677     23  2.500                                             
     2     -4.2742503     23  2.500                                             
     0     -4.0071322     23  2.500                                             
     0      9.4498801     23  2.500                                             
     1     -5.4423304     23  2.500                                             
     1     27.2116520     23  2.500                                             
  local pseudopotential read in
  partial core-charges read in
  partial kinetic energy density read in
  atomic valenz-charges read in
  non local Contribution for L=           2  read in
    real space projection operators read in
  non local Contribution for L=           2  read in
    real space projection operators read in
  non local Contribution for L=           0  read in
    real space projection operators read in
  non local Contribution for L=           0  read in
    real space projection operators read in
  non local Contribution for L=           1  read in
    real space projection operators read in
  non local Contribution for L=           1  read in
    real space projection operators read in
    PAW grid and wavefunctions read in
 
   number of l-projection  operators is LMAX  =           6
   number of lm-projection operators is LMMAX =          18
 
 POTCAR:    PAW_PBE I 08Apr2002                   
   VRHFIN =I : s2p5                                                             
   LEXCH  = PE                                                                  
   EATOM  =   315.8678 eV,   23.2156 Ry                                         
                                                                                
   TITEL  = PAW_PBE I 08Apr2002                                                 
   LULTRA =        F    use ultrasoft PP ?                                      
   IUNSCR =        1    unscreen: 0-lin 1-nonlin 2-no                           
   RPACOR =    2.200    partial core radius                                     
   POMASS =  126.904; ZVAL   =    7.000    mass and valenz                      
   RCORE  =    2.300    outmost cutoff radius                                   
   RWIGS  =    2.810; RWIGS  =    1.487    wigner-seitz radius (au A)           
   ENMAX  =  175.647; ENMIN  =  131.735 eV                                      
   ICORE  =        3    local potential                                         
   LCOR   =        T    correct aug charges                                     
   LPAW   =        T    paw PP                                                  
   EAUG   =  370.139                                                            
   DEXC   =    0.000                                                            
   RMAX   =    2.359    core radius for proj-oper                               
   RAUG   =    1.300    factor for augmentation sphere                          
   RDEP   =    2.392    radius for radial grids                                 
   RDEPT  =    2.170    core radius for aug-charge                              
                                                                                
   Atomic configuration                                                         
   13 entries                                                                   
     n  l   j            E        occ.                                          
     1  0  0.50    -32976.3739   2.0000                                         
     2  0  0.50     -5094.5933   2.0000                                         
     2  1  1.50     -4572.0131   6.0000                                         
     3  0  0.50     -1028.2813   2.0000                                         
     3  1  1.50      -859.0250   6.0000                                         
     3  2  2.50      -605.7620  10.0000                                         
     4  0  0.50      -180.5540   2.0000                                         
     4  1  1.50      -127.5306   6.0000                                         
     4  2  2.50       -50.2720  10.0000                                         
     5  0  0.50       -17.4058   2.0000                                         
     5  1  0.50        -7.0851   5.0000                                         
     5  2  1.50        -7.0750   0.0000                                         
     4  3  2.50        -7.0750   0.0000                                         
   Description                                                                  
     l       E           TYP  RCUT    TYP  RCUT                                 
     0    -17.4058016     23  2.300                                             
     0    -18.7663842     23  2.300                                             
     1     -7.0850686     23  2.300                                             
     1     -4.2150896     23  2.300                                             
     2     -7.0750295     23  2.300                                             
     3     -1.3605826     23  2.300                                             
  local pseudopotential read in
  partial core-charges read in
  partial kinetic energy density read in
  atomic valenz-charges read in
  non local Contribution for L=           0  read in
    real space projection operators read in
  non local Contribution for L=           0  read in
    real space projection operators read in
  non local Contribution for L=           1  read in
    real space projection operators read in
  non local Contribution for L=           1  read in
    real space projection operators read in
  non local Contribution for L=           2  read in
    real space projection operators read in
    PAW grid and wavefunctions read in
 
   number of l-projection  operators is LMAX  =           5
   number of lm-projection operators is LMMAX =          13
 
  PAW_PBE Cr 06Sep2000                  :
 energy of atom  1       EATOM= -276.8859
 kinetic energy error for atom=    0.0043 (will be added to EATOM!!)
  PAW_PBE I 08Apr2002                   :
 energy of atom  2       EATOM= -315.8678
 kinetic energy error for atom=    0.0023 (will be added to EATOM!!)
 
 
 POSCAR: POSCAR                                  
  positions in direct lattice
  velocities in cartesian coordinates
 exchange correlation table for  LEXCH =        8
   RHO(1)=    0.500       N(1)  =     2000
   RHO(2)=  100.500       N(2)  =     4000
 


--------------------------------------------------------------------------------------------------------


 ion  position               nearest neighbor table
   1  0.000  0.000  0.500-   3 2.74   4 2.74   5 2.74   6 2.74   7 2.74   8 2.74
   2  0.333  0.667  0.500-   5 2.74   8 2.74   6 2.74   4 2.74   7 2.74   3 2.74
   3  0.307  0.973  0.461-   1 2.74   2 2.74
   4  0.027  0.333  0.461-   2 2.74   1 2.74
   5  0.307  0.333  0.539-   2 2.74   1 2.74
   6  0.667  0.973  0.539-   2 2.74   1 2.74
   7  0.027  0.693  0.539-   1 2.74   2 2.74
   8  0.667  0.693  0.461-   2 2.74   1 2.74
 
  LATTYP: Found a hexagonal cell.
 ALAT       =     7.0020000000
 C/A-ratio  =     5.7126535276
  
  Lattice vectors:
  
 A1 = (   7.0020000000,   0.0000000000,   0.0000000000)
 A2 = (  -3.5010000000,   6.0639098773,   0.0000000000)
 A3 = (   0.0000000000,   0.0000000000,  40.0000000000)


Analysis of symmetry for initial positions (statically):
=====================================================================
 Subroutine PRICEL returns:
 Original cell was already a primitive cell.
 

 Routine SETGRP: Setting up the symmetry group for a 
 hexagonal supercell.


 Subroutine GETGRP returns: Found 12 space group operations
 (whereof  6 operations were pure point group operations)
 out of a pool of 24 trial point group operations.


The static configuration has the point symmetry D_3 .
 The point group associated with its full space group is D_3d.


Analysis of symmetry for dynamics (positions and initial velocities):
=====================================================================
 Subroutine PRICEL returns:
 Original cell was already a primitive cell.
 

 Routine SETGRP: Setting up the symmetry group for a 
 hexagonal supercell.


 Subroutine GETGRP returns: Found 12 space group operations
 (whereof  6 operations were pure point group operations)
 out of a pool of 24 trial point group operations.


The dynamic configuration has the point symmetry D_3 .
 The point group associated with its full space group is D_3d.


Analysis of structural, dynamic, and magnetic symmetry:
=====================================================================
 Subroutine PRICEL returns:
 Original cell was already a primitive cell.
 

 Routine SETGRP: Setting up the symmetry group for a 
 hexagonal supercell.


 Subroutine GETGRP returns: Found 12 space group operations
 (whereof  6 operations were pure point group operations)
 out of a pool of 24 trial point group operations.


The magnetic configuration has the point symmetry D_3 .
 The point group associated with its full space group is D_3d.


 Subroutine INISYM returns: Found 12 space group operations
 (whereof  6 operations are pure point group operations),
 and found     1 'primitive' translations

 
 
 KPOINTS: K-Points   # First line comment         

Automatic generation of k-mesh.
Space group operators:
 irot       det(A)        alpha          n_x          n_y          n_z        tau_x        tau_y        tau_z
    1     1.000000     0.000000     1.000000     0.000000     0.000000     0.000000     0.000000     0.000000
    2     1.000000   120.000000     0.000000     0.000000    -1.000000     0.000000     0.000000     0.000000
    3     1.000000   120.000000     0.000000     0.000000     1.000000     0.000000     0.000000     0.000000
    4     1.000000   180.000000     0.866025    -0.500000     0.000000     0.000000     0.000000     0.000000
    5     1.000000   180.000000     0.000000     1.000000     0.000000     0.000000     0.000000     0.000000
    6     1.000000   180.000000     0.866025     0.500000     0.000000     0.000000     0.000000     0.000000
    7    -1.000000     0.000000     1.000000     0.000000     0.000000     0.333333     0.666667     0.000000
    8    -1.000000   120.000000     0.000000     0.000000    -1.000000     0.333333     0.666667     0.000000
    9    -1.000000   120.000000     0.000000     0.000000     1.000000     0.333333     0.666667     0.000000
   10    -1.000000   180.000000     0.866025    -0.500000     0.000000     0.333333     0.666667     0.000000
   11    -1.000000   180.000000     0.000000     1.000000     0.000000     0.333333     0.666667     0.000000
   12    -1.000000   180.000000     0.866025     0.500000     0.000000     0.333333     0.666667     0.000000
 
 Subroutine IBZKPT returns following result:
 ===========================================
 
 Found     16 irreducible k-points:
 
 Following reciprocal coordinates:
            Coordinates               Weight
  0.000000  0.000000  0.000000      1.000000
  0.090909 -0.000000  0.000000      6.000000
  0.181818 -0.000000  0.000000      6.000000
  0.272727 -0.000000  0.000000      6.000000
  0.363636 -0.000000  0.000000      6.000000
  0.454545 -0.000000  0.000000      6.000000
  0.090909  0.090909  0.000000      6.000000
  0.181818  0.090909  0.000000     12.000000
  0.272727  0.090909  0.000000     12.000000
  0.363636  0.090909  0.000000     12.000000
  0.454545  0.090909  0.000000      6.000000
  0.181818  0.181818  0.000000      6.000000
  0.272727  0.181818  0.000000     12.000000
  0.363636  0.181818  0.000000     12.000000
  0.272727  0.272727  0.000000      6.000000
  0.363636  0.272727  0.000000      6.000000
 
 Following cartesian coordinates:
            Coordinates               Weight
  0.000000  0.000000  0.000000      1.000000
  0.012983  0.007496  0.000000      6.000000
  0.025967  0.014992  0.000000      6.000000
  0.038950  0.022488  0.000000      6.000000
  0.051933  0.029984  0.000000      6.000000
  0.064917  0.037480  0.000000      6.000000
  0.012983  0.022488  0.000000      6.000000
  0.025967  0.029984  0.000000     12.000000
  0.038950  0.037480  0.000000     12.000000
  0.051933  0.044975  0.000000     12.000000
  0.064917  0.052471  0.000000      6.000000
  0.025967  0.044975  0.000000      6.000000
  0.038950  0.052471  0.000000     12.000000
  0.051933  0.059967  0.000000     12.000000
  0.038950  0.067463  0.000000      6.000000
  0.051933  0.074959  0.000000      6.000000
 
 TETIRR: Found     66 inequivalent tetrahedra from      726


--------------------------------------------------------------------------------------------------------




 Dimension of arrays:
   k-points           NKPTS =     16   k-points in BZ     NKDIM =     16   number of bands    NBANDS=     38
   number of dos      NEDOS =    301   number of ions     NIONS =      8
   non local maximal  LDIM  =      6   non local SUM 2l+1 LMDIM =     18
   total plane-waves  NPLWV = 576000
   max r-space proj   IRMAX =      1   max aug-charges    IRDMAX=  19815
   dimension x,y,z NGX =    48 NGY =   48 NGZ =  250
   dimension x,y,z NGXF=    96 NGYF=   96 NGZF=  500
   support grid    NGXF=    96 NGYF=   96 NGZF=  500
   ions per type =               2   6
   NGX,Y,Z   is equivalent  to a cutoff of  11.40, 11.40, 10.39 a.u.
   NGXF,Y,Z  is equivalent  to a cutoff of  22.79, 22.79, 20.78 a.u.

 SYSTEM =  monolayer-CrI3                          
 POSCAR =  POSCAR                                  

 Startparameter for this run:
   NWRITE =      2    write-flag & timer
   PREC   = accura    normal or accurate (medium, high low for compatibility)
   ISTART =      0    job   : 0-new  1-cont  2-samecut
   ICHARG =      2    charge: 1-file 2-atom 10-const
   ISPIN  =      2    spin polarized calculation?
   LNONCOLLINEAR =      F non collinear calculations
   LSORBIT =      F    spin-orbit coupling
   INIWAV =      1    electr: 0-lowe 1-rand  2-diag
   LASPH  =      F    aspherical Exc in radial PAW
   METAGGA=      F    non-selfconsistent MetaGGA calc.

 Electronic Relaxation 1
   ENCUT  =  350.0 eV  25.72 Ry    5.07 a.u.  10.68 10.68 61.02*2*pi/ulx,y,z
   ENINI  =  350.0     initial cutoff
   ENAUG  =  402.1 eV  augmentation charge cutoff
   NELM   =     60;   NELMIN=  6; NELMDL= -5     # of ELM steps 
   EDIFF  = 0.1E-06   stopping-criterion for ELM
   LREAL  =      F    real-space projection
   NLSPLINE    = F    spline interpolate recip. space projectors
   LCOMPAT=      F    compatible to vasp.4.4
   GGA_COMPAT  = T    GGA compatible to vasp.4.4-vasp.4.6
   LMAXPAW     = -100 max onsite density
   LMAXMIX     =    2 max onsite mixed and CHGCAR
   VOSKOWN=      0    Vosko Wilk Nusair interpolation
   ROPT   =    0.00000   0.00000
 Ionic relaxation
   EDIFFG = -.1E-05   stopping-criterion for IOM
   NSW    =    100    number of steps for IOM
   NBLOCK =      1;   KBLOCK =    100    inner block; outer block 
   IBRION =      2    ionic relax: 0-MD 1-quasi-New 2-CG
   NFREE  =      1    steps in history (QN), initial steepest desc. (CG)
   ISIF   =      2    stress and relaxation
   IWAVPR =     11    prediction:  0-non 1-charg 2-wave 3-comb
   ISYM   =      2    0-nonsym 1-usesym 2-fastsym
   LCORR  =      T    Harris-Foulkes like correction to forces

   POTIM  = 0.0200    time-step for ionic-motion
   TEIN   =    0.0    initial temperature
   TEBEG  =    0.0;   TEEND  =   0.0 temperature during run
   SMASS  =  -3.00    Nose mass-parameter (am)
   estimated Nose-frequenzy (Omega)   =  0.10E-29 period in steps =****** mass=  -0.112E-26a.u.
   SCALEE = 1.0000    scale energy and forces
   NPACO  =    256;   APACO  = 16.0  distance and # of slots for P.C.
   PSTRESS=    0.0 pullay stress

  Mass of Ions in am
   POMASS =  52.00126.90
  Ionic Valenz
   ZVAL   =   6.00  7.00
  Atomic Wigner-Seitz radii
   RWIGS  =  -1.00 -1.00
  virtual crystal weights 
   VCA    =   1.00  1.00
   NELECT =      54.0000    total number of electrons
   NUPDOWN=      -1.0000    fix difference up-down

 DOS related values:
   EMIN   =  10.00;   EMAX   =-10.00  energy-range for DOS
   EFERMI =   0.00
   ISMEAR =    -5;   SIGMA  =   0.05  broadening in eV -4-tet -1-fermi 0-gaus

 Electronic relaxation 2 (details)
   IALGO  =     38    algorithm
   LDIAG  =      T    sub-space diagonalisation (order eigenvalues)
   LSUBROT=      F    optimize rotation matrix (better conditioning)
   TURBO    =      0    0=normal 1=particle mesh
   IRESTART =      0    0=no restart 2=restart with 2 vectors
   NREBOOT  =      0    no. of reboots
   NMIN     =      0    reboot dimension
   EREF     =   0.00    reference energy to select bands
   IMIX   =      4    mixing-type and parameters
     AMIX     =   0.40;   BMIX     =  1.00
     AMIX_MAG =   1.60;   BMIX_MAG =  1.00
     AMIN     =   0.10
     WC   =   100.;   INIMIX=   1;  MIXPRE=   1;  MAXMIX=  40

 Intra band minimization:
   WEIMIN = 0.0010     energy-eigenvalue tresh-hold
   EBREAK =  0.66E-09  absolut break condition
   DEPER  =   0.30     relativ break condition  

   TIME   =   0.40     timestep for ELM

  volume/ion in A,a.u.               =     212.30      1432.65
  Fermi-wavevector in a.u.,A,eV,Ry     =   0.518634  0.980076  3.659714  0.268981
  Thomas-Fermi vector in A             =   1.535622
 
 Write flags
   LWAVE        =      T    write WAVECAR
   LDOWNSAMPLE  =      F    k-point downsampling of WAVECAR
   LCHARG       =      T    write CHGCAR
   LVTOT        =      F    write LOCPOT, total local potential
   LVHAR        =      F    write LOCPOT, Hartree potential only
   LELF         =      F    write electronic localiz. function (ELF)
   LORBIT       =     11    0 simple, 1 ext, 2 COOP (PROOUT), +10 PAW based schemes


 Dipole corrections
   LMONO  =      F    monopole corrections only (constant potential shift)
   LDIPOL =      F    correct potential (dipole corrections)
   IDIPOL =      0    1-x, 2-y, 3-z, 4-all directions 
   EPSILON=  1.0000000 bulk dielectric constant

 Exchange correlation treatment:
   GGA     =    PE    GGA type
   LEXCH   =     8    internal setting for exchange type
   VOSKOWN=      0    Vosko Wilk Nusair interpolation
   LHFCALC =     F    Hartree Fock is set to
   LHFONE  =     F    Hartree Fock one center treatment
   AEXX    =    0.0000 exact exchange contribution

 Linear response parameters
   LEPSILON=     F    determine dielectric tensor
   LRPA    =     F    only Hartree local field effects (RPA)
   LNABLA  =     F    use nabla operator in PAW spheres
   LVEL    =     F    velocity operator in full k-point grid
   LINTERFAST=   F  fast interpolation
   KINTER  =     0    interpolate to denser k-point grid
   CSHIFT  =0.1000    complex shift for real part using Kramers Kronig
   OMEGAMAX=  -1.0    maximum frequency
   DEG_THRESHOLD= 0.2000000E-02 threshold for treating states as degnerate
   RTIME   =   -0.100 relaxation time in fs
  (WPLASMAI=    0.000 imaginary part of plasma frequency in eV, 0.658/RTIME)
   DFIELD  = 0.0000000 0.0000000 0.0000000 field for delta impulse in time
 
 Orbital magnetization related:
   ORBITALMAG=     F  switch on orbital magnetization
   LCHIMAG   =     F  perturbation theory with respect to B field
   DQ        =  0.001000  dq finite difference perturbation B field
   LLRAUG    =     F  two centre corrections for induced B field



--------------------------------------------------------------------------------------------------------


 conjugate gradient relaxation of ions
 charge density and potential will be updated during run
 spin polarized calculation
 Variant of blocked Davidson
 Davidson routine will perform the subspace rotation
 perform sub-space diagonalisation
    after iterative eigenvector-optimisation
 modified Broyden-mixing scheme, WC =      100.0
 initial mixing is a Kerker type mixing with AMIX =  0.4000 and BMIX =      1.0000
 Hartree-type preconditioning will be used
 using additional bands           11
 reciprocal scheme for non local part
 use partial core corrections
 calculate Harris-corrections to forces 
   (improved forces if not selfconsistent)
 use gradient corrections 
 use of overlap-Matrix (Vanderbilt PP)
 Fermi weights with tetrahedron method with Bloechl corrections


--------------------------------------------------------------------------------------------------------


  energy-cutoff  :      350.00
  volume of cell :     1698.38
      direct lattice vectors                 reciprocal lattice vectors
     7.002000000  0.000000000  0.000000000     0.142816338  0.082455051  0.000000000
    -3.501000000  6.063909877  0.000000000     0.000000000  0.164910103  0.000000000
     0.000000000  0.000000000 40.000000000     0.000000000  0.000000000  0.025000000

  length of vectors
     7.002000000  7.002000000 40.000000000     0.164910103  0.164910103  0.025000000


 
 k-points in units of 2pi/SCALE and weight: K-Points   # First line comment         
   0.00000000  0.00000000  0.00000000       0.008
   0.01298330  0.00749591  0.00000000       0.050
   0.02596661  0.01499183  0.00000000       0.050
   0.03894991  0.02248774  0.00000000       0.050
   0.05193321  0.02998366  0.00000000       0.050
   0.06491652  0.03747957  0.00000000       0.050
   0.01298330  0.02248774  0.00000000       0.050
   0.02596661  0.02998366  0.00000000       0.099
   0.03894991  0.03747957  0.00000000       0.099
   0.05193321  0.04497548  0.00000000       0.099
   0.06491652  0.05247140  0.00000000       0.050
   0.02596661  0.04497548  0.00000000       0.050
   0.03894991  0.05247140  0.00000000       0.099
   0.05193321  0.05996731  0.00000000       0.099
   0.03894991  0.06746322  0.00000000       0.050
   0.05193321  0.07495914  0.00000000       0.050
 
 k-points in reciprocal lattice and weights: K-Points   # First line comment         
   0.00000000  0.00000000  0.00000000       0.008
   0.09090909 -0.00000000  0.00000000       0.050
   0.18181818 -0.00000000  0.00000000       0.050
   0.27272727 -0.00000000  0.00000000       0.050
   0.36363636 -0.00000000  0.00000000       0.050
   0.45454545 -0.00000000  0.00000000       0.050
   0.09090909  0.09090909  0.00000000       0.050
   0.18181818  0.09090909  0.00000000       0.099
   0.27272727  0.09090909  0.00000000       0.099
   0.36363636  0.09090909  0.00000000       0.099
   0.45454545  0.09090909  0.00000000       0.050
   0.18181818  0.18181818  0.00000000       0.050
   0.27272727  0.18181818  0.00000000       0.099
   0.36363636  0.18181818  0.00000000       0.099
   0.27272727  0.27272727  0.00000000       0.050
   0.36363636  0.27272727  0.00000000       0.050
 
 position of ions in fractional coordinates (direct lattice) 
   0.00000000  0.00000000  0.50000000
   0.33333333  0.66666667  0.50000000
   0.30658696  0.97325363  0.46096293
   0.02674637  0.33333333  0.46096293
   0.30658696  0.33333333  0.53903707
   0.66666667  0.97325363  0.53903707
   0.02674637  0.69341304  0.53903707
   0.66666667  0.69341304  0.46096293
 
 position of ions in cartesian coordinates  (Angst):
   0.00000000  0.00000000 20.00000000
   0.00000000  4.04260658 20.00000000
  -1.26063906  5.90172227 18.43851732
  -0.97972188  2.02130329 18.43851732
   0.97972188  2.02130329 21.56148268
   1.26063906  5.90172227 21.56148268
  -2.24036094  4.20479419 21.56148268
   2.24036094  4.20479419 18.43851732
 


--------------------------------------------------------------------------------------------------------


 k-point  1 :   0.0000 0.0000 0.0000  plane waves:   25383
 k-point  2 :   0.0909-0.0000 0.0000  plane waves:   25303
 k-point  3 :   0.1818-0.0000 0.0000  plane waves:   25271
 k-point  4 :   0.2727-0.0000 0.0000  plane waves:   25208
 k-point  5 :   0.3636-0.0000 0.0000  plane waves:   25250
 k-point  6 :   0.4545-0.0000 0.0000  plane waves:   25266
 k-point  7 :   0.0909 0.0909 0.0000  plane waves:   25293
 k-point  8 :   0.1818 0.0909 0.0000  plane waves:   25262
 k-point  9 :   0.2727 0.0909 0.0000  plane waves:   25235
 k-point 10 :   0.3636 0.0909 0.0000  plane waves:   25226
 k-point 11 :   0.4545 0.0909 0.0000  plane waves:   25270
 k-point 12 :   0.1818 0.1818 0.0000  plane waves:   25225
 k-point 13 :   0.2727 0.1818 0.0000  plane waves:   25245
 k-point 14 :   0.3636 0.1818 0.0000  plane waves:   25254
 k-point 15 :   0.2727 0.2727 0.0000  plane waves:   25261
 k-point 16 :   0.3636 0.2727 0.0000  plane waves:   25248

 maximum and minimum number of plane-waves per node :     12726    12566

 maximum number of plane-waves:     25383
 maximum index in each direction: 
   IXMAX=   10   IYMAX=   10   IZMAX=   61
   IXMIN=  -11   IYMIN=  -10   IZMIN=  -61


 parallel 3D FFT for wavefunctions:
    minimum data exchange during FFTs selected (reduces bandwidth)
 parallel 3D FFT for charge:
    minimum data exchange during FFTs selected (reduces bandwidth)


 total amount of memory used by VASP MPI-rank0   377505. kBytes
=======================================================================

   base      :      30000. kBytes
   nonl-proj :      60270. kBytes
   fftplans  :      47218. kBytes
   grid      :     115531. kBytes
   one-center:        124. kBytes
   wavefun   :     124362. kBytes
 
     INWAV:  cpu time    0.0010: real time    0.0001
 Broyden mixing: mesh for mixing (old mesh)
   NGX = 21   NGY = 21   NGZ =123
  (NGX  = 96   NGY  = 96   NGZ  =500)
  gives a total of  54243 points

 initial charge density was supplied:
 charge density of overlapping atoms calculated
 number of electron      54.0000000 magnetization      12.0000000
 keeping initial charge density in first step


--------------------------------------------------------------------------------------------------------


 Maximum index for augmentation-charges         4756 (set IRDMAX)


--------------------------------------------------------------------------------------------------------


 First call to EWALD:  gamma=   0.149
 Maximum number of real-space cells 5x 5x 1
 Maximum number of reciprocal cells 2x 2x 8

    FEWALD:  cpu time    0.0000: real time    0.0013


--------------------------------------- Iteration      1(   1)  ---------------------------------------


    POTLOK:  cpu time    1.8927: real time    1.9740
    SETDIJ:  cpu time    0.0170: real time    0.0165
     EDDAV:  cpu time    9.4536: real time    9.4806
 BZINTS: Fermi energy:  4.567211; 54.000000 electrons
         Band energy: -31.539956;  BLOECHL correction: -0.058522
       DOS:  cpu time    0.0060: real time    0.0071
    --------------------------------------------
      LOOP:  cpu time   11.3693: real time   11.4783

 eigenvalue-minimisations  :  2536
 total energy-change (2. order) : 0.3984624E+03  (-0.1121013E+04)
 number of electron      54.0000000 magnetization      12.0000000
 augmentation part       54.0000000 magnetization      12.0000000

 Free energy of the ion-electron system (eV)
  ---------------------------------------------------
  alpha Z        PSCENC =         8.00746852
  Ewald energy   TEWEN  =     13715.66565868
  -Hartree energ DENC   =    -15824.70327130
  -exchange      EXHF   =         0.00000000
  -V(xc)+E(xc)   XCENC  =      -114.64904060
  PAW double counting   =      2181.82218628    -1985.09704784
  entropy T*S    EENTRO =         0.00000000
  eigenvalues    EBANDS =       -31.53995636
  atomic energy  EATOM  =      2448.95636788
  Solvation  Ediel_sol  =         0.00000000
  ---------------------------------------------------
  free energy    TOTEN  =       398.46236525 eV

  energy without entropy =      398.46236525  energy(sigma->0) =      398.46236525


--------------------------------------------------------------------------------------------------------




--------------------------------------- Iteration      1(   2)  ---------------------------------------


     EDDAV:  cpu time   12.5821: real time   12.5805
 BZINTS: Fermi energy: -0.926951; 54.000000 electrons
         Band energy:-380.828500;  BLOECHL correction: -0.024670
       DOS:  cpu time    0.0080: real time    0.0082
    --------------------------------------------
      LOOP:  cpu time   12.5901: real time   12.5886

 eigenvalue-minimisations  :  3662
 total energy-change (2. order) :-0.3492885E+03  (-0.3320273E+03)
 number of electron      54.0000000 magnetization      12.0000000
 augmentation part       54.0000000 magnetization      12.0000000

 Free energy of the ion-electron system (eV)
  ---------------------------------------------------
  alpha Z        PSCENC =         8.00746852
  Ewald energy   TEWEN  =     13715.66565868
  -Hartree energ DENC   =    -15824.70327130
  -exchange      EXHF   =         0.00000000
  -V(xc)+E(xc)   XCENC  =      -114.64904060
  PAW double counting   =      2181.82218628    -1985.09704784
  entropy T*S    EENTRO =         0.00000000
  eigenvalues    EBANDS =      -380.82849999
  atomic energy  EATOM  =      2448.95636788
  Solvation  Ediel_sol  =         0.00000000
  ---------------------------------------------------
  free energy    TOTEN  =        49.17382162 eV

  energy without entropy =       49.17382162  energy(sigma->0) =       49.17382162


--------------------------------------------------------------------------------------------------------




--------------------------------------- Iteration      1(   3)  ---------------------------------------


     EDDAV:  cpu time   11.1043: real time   11.1067
 BZINTS: Fermi energy: -3.104374; 54.000000 electrons
         Band energy:-458.431612;  BLOECHL correction:  0.000000
       DOS:  cpu time    0.0010: real time    0.0017
    --------------------------------------------
      LOOP:  cpu time   11.1053: real time   11.1084

 eigenvalue-minimisations  :  3146
 total energy-change (2. order) :-0.7760311E+02  (-0.7649399E+02)
 number of electron      54.0000000 magnetization      12.0000000
 augmentation part       54.0000000 magnetization      12.0000000

 Free energy of the ion-electron system (eV)
  ---------------------------------------------------
  alpha Z        PSCENC =         8.00746852
  Ewald energy   TEWEN  =     13715.66565868
  -Hartree energ DENC   =    -15824.70327130
  -exchange      EXHF   =         0.00000000
  -V(xc)+E(xc)   XCENC  =      -114.64904060
  PAW double counting   =      2181.82218628    -1985.09704784
  entropy T*S    EENTRO =         0.00000000
  eigenvalues    EBANDS =      -458.43161243
  atomic energy  EATOM  =      2448.95636788
  Solvation  Ediel_sol  =         0.00000000
  ---------------------------------------------------
  free energy    TOTEN  =       -28.42929082 eV

  energy without entropy =      -28.42929082  energy(sigma->0) =      -28.42929082


--------------------------------------------------------------------------------------------------------




--------------------------------------- Iteration      1(   4)  ---------------------------------------


     EDDAV:  cpu time   12.6081: real time   12.6115
 BZINTS: Fermi energy: -3.176441; 54.000000 electrons
         Band energy:-463.470903;  BLOECHL correction:  0.000000
       DOS:  cpu time    0.0010: real time    0.0016
    --------------------------------------------
      LOOP:  cpu time   12.6091: real time   12.6131

 eigenvalue-minimisations  :  3638
 total energy-change (2. order) :-0.5039291E+01  (-0.5009830E+01)
 number of electron      54.0000000 magnetization      12.0000000
 augmentation part       54.0000000 magnetization      12.0000000

 Free energy of the ion-electron system (eV)
  ---------------------------------------------------
  alpha Z        PSCENC =         8.00746852
  Ewald energy   TEWEN  =     13715.66565868
  -Hartree energ DENC   =    -15824.70327130
  -exchange      EXHF   =         0.00000000
  -V(xc)+E(xc)   XCENC  =      -114.64904060
  PAW double counting   =      2181.82218628    -1985.09704784
  entropy T*S    EENTRO =         0.00000000
  eigenvalues    EBANDS =      -463.47090316
  atomic energy  EATOM  =      2448.95636788
  Solvation  Ediel_sol  =         0.00000000
  ---------------------------------------------------
  free energy    TOTEN  =       -33.46858155 eV

  energy without entropy =      -33.46858155  energy(sigma->0) =      -33.46858155


--------------------------------------------------------------------------------------------------------




--------------------------------------- Iteration      1(   5)  ---------------------------------------


     EDDAV:  cpu time   11.9532: real time   11.9494
 BZINTS: Fermi energy: -3.222227; 54.000000 electrons
         Band energy:-463.563434;  BLOECHL correction:  0.000000
       DOS:  cpu time    0.0010: real time    0.0014
    CHARGE:  cpu time    1.1548: real time    1.1555
    MIXING:  cpu time    0.0500: real time    0.0491
    --------------------------------------------
      LOOP:  cpu time   13.1590: real time   13.1553

 eigenvalue-minimisations  :  3474
 total energy-change (2. order) :-0.9253124E-01  (-0.9237448E-01)
 number of electron      53.9999999 magnetization      11.7688333
 augmentation part       -6.4088484 magnetization       9.3428572

 Broyden mixing:
  rms(total) = 0.16564E+01    rms(broyden)= 0.16555E+01
  rms(prec ) = 0.16854E+01
  weight for this iteration     100.00

 Free energy of the ion-electron system (eV)
  ---------------------------------------------------
  alpha Z        PSCENC =         8.00746852
  Ewald energy   TEWEN  =     13715.66565868
  -Hartree energ DENC   =    -15824.70327130
  -exchange      EXHF   =         0.00000000
  -V(xc)+E(xc)   XCENC  =      -114.64904060
  PAW double counting   =      2181.82218628    -1985.09704784
  entropy T*S    EENTRO =         0.00000000
  eigenvalues    EBANDS =      -463.56343440
  atomic energy  EATOM  =      2448.95636788
  Solvation  Ediel_sol  =         0.00000000
  ---------------------------------------------------
  free energy    TOTEN  =       -33.56111278 eV

  energy without entropy =      -33.56111278  energy(sigma->0) =      -33.56111278


--------------------------------------------------------------------------------------------------------




--------------------------------------- Iteration      1(   6)  ---------------------------------------


    POTLOK:  cpu time    1.9547: real time    1.9619
    SETDIJ:  cpu time    0.0410: real time    0.0400
     EDDAV:  cpu time   11.9462: real time   11.9434
 BZINTS: Fermi energy: -4.812117; 54.000000 electrons
         Band energy:-497.543781;  BLOECHL correction:  0.000000
       DOS:  cpu time    0.0020: real time    0.0019
    CHARGE:  cpu time    1.2018: real time    1.2011
    MIXING:  cpu time    0.0460: real time    0.0460
    --------------------------------------------
      LOOP:  cpu time   15.1917: real time   15.1944

 eigenvalue-minimisations  :  3444
 total energy-change (2. order) : 0.2204261E+01  (-0.3286846E+01)
 number of electron      54.0000002 magnetization      11.6946239
 augmentation part       -1.3805933 magnetization       9.2104974

 Broyden mixing:
  rms(total) = 0.25615E+01    rms(broyden)= 0.25613E+01
  rms(prec ) = 0.26308E+01
  weight for this iteration     100.00

 eigenvalues of (default mixing * dielectric matrix)
  average eigenvalue GAMMA=   0.3095
  0.3095

 Free energy of the ion-electron system (eV)
  ---------------------------------------------------
  alpha Z        PSCENC =         8.00746852
  Ewald energy   TEWEN  =     13715.66565868
  -Hartree energ DENC   =    -15794.93625717
  -exchange      EXHF   =         0.00000000
  -V(xc)+E(xc)   XCENC  =      -112.68450644
  PAW double counting   =      2472.62698310    -2271.44878558
  entropy T*S    EENTRO =         0.00000000
  eigenvalues    EBANDS =      -497.54378116
  atomic energy  EATOM  =      2448.95636788
  Solvation  Ediel_sol  =         0.00000000
  ---------------------------------------------------
  free energy    TOTEN  =       -31.35685217 eV

  energy without entropy =      -31.35685217  energy(sigma->0) =      -31.35685217


--------------------------------------------------------------------------------------------------------




--------------------------------------- Iteration      1(   7)  ---------------------------------------


    POTLOK:  cpu time    1.9547: real time    1.9554
    SETDIJ:  cpu time    0.0410: real time    0.0401
     EDDAV:  cpu time   12.0842: real time   12.0818
 BZINTS: Fermi energy: -4.256703; 54.000000 electrons
         Band energy:-464.744721;  BLOECHL correction:  0.000000
       DOS:  cpu time    0.0020: real time    0.0013
    CHARGE:  cpu time    1.1608: real time    1.1618
    MIXING:  cpu time    0.0440: real time    0.0431
    --------------------------------------------
      LOOP:  cpu time   15.2867: real time   15.2835

 eigenvalue-minimisations  :  3428
 total energy-change (2. order) : 0.5072584E+01  (-0.1382767E+01)
 number of electron      54.0000000 magnetization      11.5138302
 augmentation part       -5.1023669 magnetization       9.5605558

 Broyden mixing:
  rms(total) = 0.97982E+00    rms(broyden)= 0.97938E+00
  rms(prec ) = 0.98344E+00
  weight for this iteration     100.00

 eigenvalues of (default mixing * dielectric matrix)
  average eigenvalue GAMMA=   0.4913
  0.6867  0.2959

 Free energy of the ion-electron system (eV)
  ---------------------------------------------------
  alpha Z        PSCENC =         8.00746852
  Ewald energy   TEWEN  =     13715.66565868
  -Hartree energ DENC   =    -15819.07318898
  -exchange      EXHF   =         0.00000000
  -V(xc)+E(xc)   XCENC  =      -112.63493484
  PAW double counting   =      2592.47856827    -2394.93948654
  entropy T*S    EENTRO =         0.00000000
  eigenvalues    EBANDS =      -464.74472110
  atomic energy  EATOM  =      2448.95636788
  Solvation  Ediel_sol  =         0.00000000
  ---------------------------------------------------
  free energy    TOTEN  =       -26.28426811 eV

  energy without entropy =      -26.28426811  energy(sigma->0) =      -26.28426811


--------------------------------------------------------------------------------------------------------




--------------------------------------- Iteration      1(   8)  ---------------------------------------


    POTLOK:  cpu time    1.8827: real time    1.8880
    SETDIJ:  cpu time    0.0410: real time    0.0395
     EDDAV:  cpu time   10.8603: real time   10.8586
 BZINTS: Fermi energy: -4.390587; 54.000000 electrons
         Band energy:-464.051860;  BLOECHL correction:  0.000000
       DOS:  cpu time    0.0010: real time    0.0016
    CHARGE:  cpu time    1.2388: real time    1.2383
    MIXING:  cpu time    0.0460: real time    0.0460
    --------------------------------------------
      LOOP:  cpu time   14.0699: real time   14.0720

 eigenvalue-minimisations  :  3086
 total energy-change (2. order) : 0.1642685E+01  (-0.4553874E+00)
 number of electron      54.0000000 magnetization      11.1872940
 augmentation part       -5.0555191 magnetization       9.3255208

 Broyden mixing:
  rms(total) = 0.43700E+00    rms(broyden)= 0.43700E+00
  rms(prec ) = 0.44084E+00
  weight for this iteration     100.00

 eigenvalues of (default mixing * dielectric matrix)
  average eigenvalue GAMMA=   0.8410
  1.5716  0.2956  0.6559

 Free energy of the ion-electron system (eV)
  ---------------------------------------------------
  alpha Z        PSCENC =         8.00746852
  Ewald energy   TEWEN  =     13715.66565868
  -Hartree energ DENC   =    -15819.87493392
  -exchange      EXHF   =         0.00000000
  -V(xc)+E(xc)   XCENC  =      -110.48426636
  PAW double counting   =      2935.38991082    -2738.24992852
  entropy T*S    EENTRO =         0.00000000
  eigenvalues    EBANDS =      -464.05186034
  atomic energy  EATOM  =      2448.95636788
  Solvation  Ediel_sol  =         0.00000000
  ---------------------------------------------------
  free energy    TOTEN  =       -24.64158324 eV

  energy without entropy =      -24.64158324  energy(sigma->0) =      -24.64158324


--------------------------------------------------------------------------------------------------------




--------------------------------------- Iteration      1(   9)  ---------------------------------------


    POTLOK:  cpu time    1.9547: real time    1.9611
    SETDIJ:  cpu time    0.0390: real time    0.0388
     EDDAV:  cpu time   11.3843: real time   11.3807
 BZINTS: Fermi energy: -4.417561; 54.000000 electrons
         Band energy:-456.905100;  BLOECHL correction:  0.000000
       DOS:  cpu time    0.0000: real time    0.0016
    CHARGE:  cpu time    1.2448: real time    1.2437
    MIXING:  cpu time    0.0480: real time    0.0471
    --------------------------------------------
      LOOP:  cpu time   14.6708: real time   14.6730

 eigenvalue-minimisations  :  3248
 total energy-change (2. order) : 0.5875770E+00  (-0.7688268E-01)
 number of electron      54.0000000 magnetization      10.9560639
 augmentation part       -4.6369309 magnetization       9.3191086

 Broyden mixing:
  rms(total) = 0.29665E+00    rms(broyden)= 0.29662E+00
  rms(prec ) = 0.29912E+00
  weight for this iteration     100.00

 eigenvalues of (default mixing * dielectric matrix)
  average eigenvalue GAMMA=   0.8683
  1.7907  0.3021  0.8156  0.5650

 Free energy of the ion-electron system (eV)
  ---------------------------------------------------
  alpha Z        PSCENC =         8.00746852
  Ewald energy   TEWEN  =     13715.66565868
  -Hartree energ DENC   =    -15826.95051429
  -exchange      EXHF   =         0.00000000
  -V(xc)+E(xc)   XCENC  =      -109.55543193
  PAW double counting   =      3158.71944442    -2961.99189925
  entropy T*S    EENTRO =         0.00000000
  eigenvalues    EBANDS =      -456.90510031
  atomic energy  EATOM  =      2448.95636788
  Solvation  Ediel_sol  =         0.00000000
  ---------------------------------------------------
  free energy    TOTEN  =       -24.05400628 eV

  energy without entropy =      -24.05400628  energy(sigma->0) =      -24.05400628


--------------------------------------------------------------------------------------------------------




--------------------------------------- Iteration      1(  10)  ---------------------------------------


    POTLOK:  cpu time    1.9347: real time    1.9352
    SETDIJ:  cpu time    0.0420: real time    0.0418
     EDDAV:  cpu time   12.0522: real time   12.0487
 BZINTS: Fermi energy: -4.284260; 54.000000 electrons
         Band energy:-450.683490;  BLOECHL correction:  0.000000
       DOS:  cpu time    0.0000: real time    0.0013
    CHARGE:  cpu time    1.2438: real time    1.2423
    MIXING:  cpu time    0.0490: real time    0.0489
    --------------------------------------------
      LOOP:  cpu time   15.3217: real time   15.3183

 eigenvalue-minimisations  :  3332
 total energy-change (2. order) :-0.1297775E+01  (-0.3420338E-01)
 number of electron      54.0000000 magnetization      10.6715812
 augmentation part       -4.7359936 magnetization       9.0289815

 Broyden mixing:
  rms(total) = 0.22273E+00    rms(broyden)= 0.22273E+00
  rms(prec ) = 0.22318E+00
  weight for this iteration     100.00

 eigenvalues of (default mixing * dielectric matrix)
  average eigenvalue GAMMA=   0.9415
  2.1372  0.3016  0.8665  0.8665  0.5358

 Free energy of the ion-electron system (eV)
  ---------------------------------------------------
  alpha Z        PSCENC =         8.00746852
  Ewald energy   TEWEN  =     13715.66565868
  -Hartree energ DENC   =    -15833.37201230
  -exchange      EXHF   =         0.00000000
  -V(xc)+E(xc)   XCENC  =      -110.12986250
  PAW double counting   =      3160.48951693    -2964.28542886
  entropy T*S    EENTRO =         0.00000000
  eigenvalues    EBANDS =      -450.68348993
  atomic energy  EATOM  =      2448.95636788
  Solvation  Ediel_sol  =         0.00000000
  ---------------------------------------------------
  free energy    TOTEN  =       -25.35178156 eV

  energy without entropy =      -25.35178156  energy(sigma->0) =      -25.35178156


--------------------------------------------------------------------------------------------------------




--------------------------------------- Iteration      1(  11)  ---------------------------------------


    POTLOK:  cpu time    1.9527: real time    1.9609
    SETDIJ:  cpu time    0.0400: real time    0.0387
     EDDAV:  cpu time   11.3943: real time   11.3914
 BZINTS: Fermi energy: -4.168352; 54.000000 electrons
         Band energy:-445.774477;  BLOECHL correction:  0.000000
       DOS:  cpu time    0.0010: real time    0.0014
    CHARGE:  cpu time    1.2378: real time    1.2373
    MIXING:  cpu time    0.0510: real time    0.0501
    --------------------------------------------
      LOOP:  cpu time   14.6768: real time   14.6798

 eigenvalue-minimisations  :  3252
 total energy-change (2. order) :-0.1177697E+01  (-0.3248927E-01)
 number of electron      54.0000000 magnetization      10.2523213
 augmentation part       -4.7781630 magnetization       8.5959222

 Broyden mixing:
  rms(total) = 0.17576E+00    rms(broyden)= 0.17576E+00
  rms(prec ) = 0.17604E+00
  weight for this iteration     100.00

 eigenvalues of (default mixing * dielectric matrix)
  average eigenvalue GAMMA=   1.0470
  2.5427  1.1048  1.1048  0.3012  0.6144  0.6144

 Free energy of the ion-electron system (eV)
  ---------------------------------------------------
  alpha Z        PSCENC =         8.00746852
  Ewald energy   TEWEN  =     13715.66565868
  -Hartree energ DENC   =    -15838.48933684
  -exchange      EXHF   =         0.00000000
  -V(xc)+E(xc)   XCENC  =      -110.85518544
  PAW double counting   =      3185.94005988    -2989.98003415
  entropy T*S    EENTRO =         0.00000000
  eigenvalues    EBANDS =      -445.77447701
  atomic energy  EATOM  =      2448.95636788
  Solvation  Ediel_sol  =         0.00000000
  ---------------------------------------------------
  free energy    TOTEN  =       -26.52947848 eV

  energy without entropy =      -26.52947848  energy(sigma->0) =      -26.52947848


--------------------------------------------------------------------------------------------------------




--------------------------------------- Iteration      1(  12)  ---------------------------------------


    POTLOK:  cpu time    1.9457: real time    1.9460
    SETDIJ:  cpu time    0.0390: real time    0.0385
     EDDAV:  cpu time   10.8464: real time   10.8441
 BZINTS: Fermi energy: -4.064811; 54.000000 electrons
         Band energy:-442.954786;  BLOECHL correction:  0.000000
       DOS:  cpu time    0.0010: real time    0.0016
    CHARGE:  cpu time    1.2118: real time    1.2119
    MIXING:  cpu time    0.0520: real time    0.0514
    --------------------------------------------
      LOOP:  cpu time   14.0959: real time   14.0935

 eigenvalue-minimisations  :  2990
 total energy-change (2. order) :-0.1588757E+01  (-0.7121617E-01)
 number of electron      54.0000000 magnetization       9.6938700
 augmentation part       -4.7157156 magnetization       8.0181394

 Broyden mixing:
  rms(total) = 0.14381E+00    rms(broyden)= 0.14381E+00
  rms(prec ) = 0.14402E+00
  weight for this iteration     100.00

 eigenvalues of (default mixing * dielectric matrix)
  average eigenvalue GAMMA=   1.1954
  3.3234  1.7704  0.3012  0.8746  0.8746  0.6120  0.6120

 Free energy of the ion-electron system (eV)
  ---------------------------------------------------
  alpha Z        PSCENC =         8.00746852
  Ewald energy   TEWEN  =     13715.66565868
  -Hartree energ DENC   =    -15841.84926067
  -exchange      EXHF   =         0.00000000
  -V(xc)+E(xc)   XCENC  =      -111.90598373
  PAW double counting   =      3178.04098631    -2982.07868696
  entropy T*S    EENTRO =         0.00000000
  eigenvalues    EBANDS =      -442.95478580
  atomic energy  EATOM  =      2448.95636788
  Solvation  Ediel_sol  =         0.00000000
  ---------------------------------------------------
  free energy    TOTEN  =       -28.11823576 eV

  energy without entropy =      -28.11823576  energy(sigma->0) =      -28.11823576


--------------------------------------------------------------------------------------------------------




--------------------------------------- Iteration      1(  13)  ---------------------------------------


    POTLOK:  cpu time    1.9617: real time    1.9662
    SETDIJ:  cpu time    0.0400: real time    0.0395
     EDDAV:  cpu time    9.9805: real time    9.9772
 BZINTS: Fermi energy: -4.021642; 54.000000 electrons
         Band energy:-440.888521;  BLOECHL correction:  0.000000
       DOS:  cpu time    0.0000: real time    0.0014
    CHARGE:  cpu time    1.2008: real time    1.2002
    MIXING:  cpu time    0.0520: real time    0.0513
    --------------------------------------------
      LOOP:  cpu time   13.2350: real time   13.2358

 eigenvalue-minimisations  :  2670
 total energy-change (2. order) :-0.1534194E+01  (-0.8204845E-01)
 number of electron      54.0000000 magnetization       9.0979982
 augmentation part       -4.7223192 magnetization       7.4121417

 Broyden mixing:
  rms(total) = 0.11136E+00    rms(broyden)= 0.11136E+00
  rms(prec ) = 0.11178E+00
  weight for this iteration     100.00

 eigenvalues of (default mixing * dielectric matrix)
  average eigenvalue GAMMA=   1.4125
  4.8024  2.2049  1.0477  1.0477  0.3012  0.6550  0.6550  0.5862

 Free energy of the ion-electron system (eV)
  ---------------------------------------------------
  alpha Z        PSCENC =         8.00746852
  Ewald energy   TEWEN  =     13715.66565868
  -Hartree energ DENC   =    -15844.50017776
  -exchange      EXHF   =         0.00000000
  -V(xc)+E(xc)   XCENC  =      -112.88856670
  PAW double counting   =      3116.69919350    -2920.70385338
  entropy T*S    EENTRO =         0.00000000
  eigenvalues    EBANDS =      -440.88852086
  atomic energy  EATOM  =      2448.95636788
  Solvation  Ediel_sol  =         0.00000000
  ---------------------------------------------------
  free energy    TOTEN  =       -29.65243012 eV

  energy without entropy =      -29.65243012  energy(sigma->0) =      -29.65243012


--------------------------------------------------------------------------------------------------------




--------------------------------------- Iteration      1(  14)  ---------------------------------------


    POTLOK:  cpu time    1.9327: real time    1.9400
    SETDIJ:  cpu time    0.0420: real time    0.0416
     EDDAV:  cpu time    9.7025: real time    9.7004
 BZINTS: Fermi energy: -4.033240; 54.000000 electrons
         Band energy:-441.497354;  BLOECHL correction:  0.000000
       DOS:  cpu time    0.0010: real time    0.0014
    CHARGE:  cpu time    1.2448: real time    1.2435
    MIXING:  cpu time    0.0530: real time    0.0533
    --------------------------------------------
      LOOP:  cpu time   12.9760: real time   12.9802

 eigenvalue-minimisations  :  2626
 total energy-change (2. order) :-0.9733280E+00  (-0.4495245E-01)
 number of electron      54.0000000 magnetization       8.6837105
 augmentation part       -4.7269624 magnetization       6.9980661

 Broyden mixing:
  rms(total) = 0.88513E-01    rms(broyden)= 0.88512E-01
  rms(prec ) = 0.89036E-01
  weight for this iteration     100.00

 eigenvalues of (default mixing * dielectric matrix)
  average eigenvalue GAMMA=   1.5707
  6.1889  2.4004  1.3663  0.9943  0.9943  0.3012  0.6068  0.6523  0.6322

 Free energy of the ion-electron system (eV)
  ---------------------------------------------------
  alpha Z        PSCENC =         8.00746852
  Ewald energy   TEWEN  =     13715.66565868
  -Hartree energ DENC   =    -15844.20830992
  -exchange      EXHF   =         0.00000000
  -V(xc)+E(xc)   XCENC  =      -113.59147737
  PAW double counting   =      3065.59267506    -2869.55078666
  entropy T*S    EENTRO =         0.00000000
  eigenvalues    EBANDS =      -441.49735436
  atomic energy  EATOM  =      2448.95636788
  Solvation  Ediel_sol  =         0.00000000
  ---------------------------------------------------
  free energy    TOTEN  =       -30.62575816 eV

  energy without entropy =      -30.62575816  energy(sigma->0) =      -30.62575816


--------------------------------------------------------------------------------------------------------




--------------------------------------- Iteration      1(  15)  ---------------------------------------


    POTLOK:  cpu time    1.9597: real time    1.9593
    SETDIJ:  cpu time    0.0410: real time    0.0408
     EDDAV:  cpu time   10.0775: real time   10.0749
 BZINTS: Fermi energy: -4.072017; 54.000000 electrons
         Band energy:-444.737022;  BLOECHL correction:  0.000000
       DOS:  cpu time    0.0010: real time    0.0016
    CHARGE:  cpu time    1.2348: real time    1.2343
    MIXING:  cpu time    0.0500: real time    0.0502
    --------------------------------------------
      LOOP:  cpu time   13.3640: real time   13.3611

 eigenvalue-minimisations  :  2680
 total energy-change (2. order) :-0.2882729E+00  (-0.1099090E-01)
 number of electron      54.0000000 magnetization       8.1935199
 augmentation part       -4.7136772 magnetization       6.5148720

 Broyden mixing:
  rms(total) = 0.70828E-01    rms(broyden)= 0.70827E-01
  rms(prec ) = 0.71148E-01
  weight for this iteration     100.00

 eigenvalues of (default mixing * dielectric matrix)
  average eigenvalue GAMMA=   1.7724
  7.9547  2.7819  1.8719  0.9961  0.9961  0.3012  0.9545  0.6395  0.6395  0.5883

 Free energy of the ion-electron system (eV)
  ---------------------------------------------------
  alpha Z        PSCENC =         8.00746852
  Ewald energy   TEWEN  =     13715.66565868
  -Hartree energ DENC   =    -15841.03393696
  -exchange      EXHF   =         0.00000000
  -V(xc)+E(xc)   XCENC  =      -113.87336451
  PAW double counting   =      3069.22544638    -2873.12464919
  entropy T*S    EENTRO =         0.00000000
  eigenvalues    EBANDS =      -444.73702189
  atomic energy  EATOM  =      2448.95636788
  Solvation  Ediel_sol  =         0.00000000
  ---------------------------------------------------
  free energy    TOTEN  =       -30.91403109 eV

  energy without entropy =      -30.91403109  energy(sigma->0) =      -30.91403109


--------------------------------------------------------------------------------------------------------




--------------------------------------- Iteration      1(  16)  ---------------------------------------


    POTLOK:  cpu time    1.9557: real time    1.9628
    SETDIJ:  cpu time    0.0390: real time    0.0383
     EDDAV:  cpu time    9.7155: real time    9.7128
 BZINTS: Fermi energy: -4.143251; 54.000000 electrons
         Band energy:-448.621180;  BLOECHL correction:  0.000000
       DOS:  cpu time    0.0010: real time    0.0014
    CHARGE:  cpu time    1.1938: real time    1.1937
    MIXING:  cpu time    0.0560: real time    0.0627
    --------------------------------------------
      LOOP:  cpu time   12.9610: real time   12.9717

 eigenvalue-minimisations  :  2616
 total energy-change (2. order) :-0.1569637E+00  (-0.7812643E-02)
 number of electron      54.0000000 magnetization       7.7787796
 augmentation part       -4.7208671 magnetization       6.0969293

 Broyden mixing:
  rms(total) = 0.59813E-01    rms(broyden)= 0.59813E-01
  rms(prec ) = 0.60033E-01
  weight for this iteration     100.00

 eigenvalues of (default mixing * dielectric matrix)
  average eigenvalue GAMMA=   1.8640
  9.1001  2.8537  2.3759  0.3012  1.2035  1.0108  1.0108  0.8097  0.6235  0.6235
  0.5911

 Free energy of the ion-electron system (eV)
  ---------------------------------------------------
  alpha Z        PSCENC =         8.00746852
  Ewald energy   TEWEN  =     13715.66565868
  -Hartree energ DENC   =    -15837.10068867
  -exchange      EXHF   =         0.00000000
  -V(xc)+E(xc)   XCENC  =      -114.07223292
  PAW double counting   =      3080.12310321    -2884.02949133
  entropy T*S    EENTRO =         0.00000000
  eigenvalues    EBANDS =      -448.62118013
  atomic energy  EATOM  =      2448.95636788
  Solvation  Ediel_sol  =         0.00000000
  ---------------------------------------------------
  free energy    TOTEN  =       -31.07099476 eV

  energy without entropy =      -31.07099476  energy(sigma->0) =      -31.07099476


--------------------------------------------------------------------------------------------------------




--------------------------------------- Iteration      1(  17)  ---------------------------------------


    POTLOK:  cpu time    1.9367: real time    1.9364
    SETDIJ:  cpu time    0.0400: real time    0.0400
     EDDAV:  cpu time   10.2474: real time   10.2446
 BZINTS: Fermi energy: -4.166437; 54.000000 electrons
         Band energy:-451.539684;  BLOECHL correction:  0.000000
       DOS:  cpu time    0.0010: real time    0.0016
    CHARGE:  cpu time    1.2518: real time    1.2515
    MIXING:  cpu time    0.0590: real time    0.0581
    --------------------------------------------
      LOOP:  cpu time   13.5359: real time   13.5322

 eigenvalue-minimisations  :  2774
 total energy-change (2. order) :-0.1059226E+00  (-0.3403174E-02)
 number of electron      54.0000000 magnetization       7.2758186
 augmentation part       -4.7266208 magnetization       5.5848039

 Broyden mixing:
  rms(total) = 0.49432E-01    rms(broyden)= 0.49432E-01
  rms(prec ) = 0.49563E-01
  weight for this iteration     100.00

 eigenvalues of (default mixing * dielectric matrix)
  average eigenvalue GAMMA=   1.9584
 10.1041  3.5364  2.5607  1.4271  0.9999  0.9999  1.0310  0.3012  0.7109  0.6231
  0.6231  0.5841

 Free energy of the ion-electron system (eV)
  ---------------------------------------------------
  alpha Z        PSCENC =         8.00746852
  Ewald energy   TEWEN  =     13715.66565868
  -Hartree energ DENC   =    -15834.04593553
  -exchange      EXHF   =         0.00000000
  -V(xc)+E(xc)   XCENC  =      -114.25312864
  PAW double counting   =      3111.60831940    -2915.57598389
  entropy T*S    EENTRO =         0.00000000
  eigenvalues    EBANDS =      -451.53968373
  atomic energy  EATOM  =      2448.95636788
  Solvation  Ediel_sol  =         0.00000000
  ---------------------------------------------------
  free energy    TOTEN  =       -31.17691732 eV

  energy without entropy =      -31.17691732  energy(sigma->0) =      -31.17691732


--------------------------------------------------------------------------------------------------------




--------------------------------------- Iteration      1(  18)  ---------------------------------------


    POTLOK:  cpu time    1.9607: real time    1.9658
    SETDIJ:  cpu time    0.0400: real time    0.0399
     EDDAV:  cpu time    9.7685: real time    9.7657
 BZINTS: Fermi energy: -4.256460; 54.000000 electrons
         Band energy:-455.436357;  BLOECHL correction:  0.000000
       DOS:  cpu time    0.0020: real time    0.0014
    CHARGE:  cpu time    1.2348: real time    1.2357
    MIXING:  cpu time    0.0600: real time    0.0592
    --------------------------------------------
      LOOP:  cpu time   13.0660: real time   13.0677

 eigenvalue-minimisations  :  2624
 total energy-change (2. order) :-0.3674749E-01  (-0.2579633E-02)
 number of electron      54.0000000 magnetization       6.7228966
 augmentation part       -4.7345218 magnetization       5.0281965

 Broyden mixing:
  rms(total) = 0.38846E-01    rms(broyden)= 0.38846E-01
  rms(prec ) = 0.38982E-01
  weight for this iteration     100.00

 eigenvalues of (default mixing * dielectric matrix)
  average eigenvalue GAMMA=   2.1619
 11.5537  4.9456  2.5968  2.1561  0.3012  1.0224  1.0224  0.9857  0.9857  0.7043
  0.5826  0.6242  0.6242

 Free energy of the ion-electron system (eV)
  ---------------------------------------------------
  alpha Z        PSCENC =         8.00746852
  Ewald energy   TEWEN  =     13715.66565868
  -Hartree energ DENC   =    -15830.10465971
  -exchange      EXHF   =         0.00000000
  -V(xc)+E(xc)   XCENC  =      -114.30060580
  PAW double counting   =      3122.26029530    -2926.26183282
  entropy T*S    EENTRO =         0.00000000
  eigenvalues    EBANDS =      -455.43635686
  atomic energy  EATOM  =      2448.95636788
  Solvation  Ediel_sol  =         0.00000000
  ---------------------------------------------------
  free energy    TOTEN  =       -31.21366481 eV

  energy without entropy =      -31.21366481  energy(sigma->0) =      -31.21366481


--------------------------------------------------------------------------------------------------------




--------------------------------------- Iteration      1(  19)  ---------------------------------------


    POTLOK:  cpu time    1.9547: real time    1.9614
    SETDIJ:  cpu time    0.0380: real time    0.0373
     EDDAV:  cpu time   10.4104: real time   10.4094
 BZINTS: Fermi energy: -4.343973; 54.000000 electrons
         Band energy:-459.029353;  BLOECHL correction:  0.000000
       DOS:  cpu time    0.0020: real time    0.0013
    CHARGE:  cpu time    1.2178: real time    1.2175
    MIXING:  cpu time    0.0620: real time    0.0622
    --------------------------------------------
      LOOP:  cpu time   13.6849: real time   13.6891

 eigenvalue-minimisations  :  2912
 total energy-change (2. order) :-0.1995682E+00  (-0.1507579E-02)
 number of electron      54.0000000 magnetization       6.4638447
 augmentation part       -4.7254304 magnetization       4.7739559

 Broyden mixing:
  rms(total) = 0.25237E-01    rms(broyden)= 0.25236E-01
  rms(prec ) = 0.25474E-01
  weight for this iteration     100.00

 eigenvalues of (default mixing * dielectric matrix)
  average eigenvalue GAMMA=   2.3465
 13.7884  6.1049  2.7108  2.4085  1.1367  1.1367  0.9996  0.9996  0.3012  0.7696
  0.5833  0.6205  0.6205  0.6707

 Free energy of the ion-electron system (eV)
  ---------------------------------------------------
  alpha Z        PSCENC =         8.00746852
  Ewald energy   TEWEN  =     13715.66565868
  -Hartree energ DENC   =    -15826.54510150
  -exchange      EXHF   =         0.00000000
  -V(xc)+E(xc)   XCENC  =      -114.49283711
  PAW double counting   =      3107.32862444    -2911.30406092
  entropy T*S    EENTRO =         0.00000000
  eigenvalues    EBANDS =      -459.02935299
  atomic energy  EATOM  =      2448.95636788
  Solvation  Ediel_sol  =         0.00000000
  ---------------------------------------------------
  free energy    TOTEN  =       -31.41323299 eV

  energy without entropy =      -31.41323299  energy(sigma->0) =      -31.41323299


--------------------------------------------------------------------------------------------------------




--------------------------------------- Iteration      1(  20)  ---------------------------------------


    POTLOK:  cpu time    1.9327: real time    1.9319
    SETDIJ:  cpu time    0.0410: real time    0.0417
     EDDAV:  cpu time   10.5334: real time   10.5306
 BZINTS: Fermi energy: -4.358189; 54.000000 electrons
         Band energy:-459.989963;  BLOECHL correction:  0.000000
       DOS:  cpu time    0.0010: real time    0.0014
    CHARGE:  cpu time    1.2508: real time    1.2492
    MIXING:  cpu time    0.0620: real time    0.0624
    --------------------------------------------
      LOOP:  cpu time   13.8209: real time   13.8172

 eigenvalue-minimisations  :  2830
 total energy-change (2. order) :-0.3507188E-01  (-0.1320133E-03)
 number of electron      54.0000000 magnetization       6.2464423
 augmentation part       -4.7219301 magnetization       4.5582234

 Broyden mixing:
  rms(total) = 0.18760E-01    rms(broyden)= 0.18760E-01
  rms(prec ) = 0.19033E-01
  weight for this iteration     100.00

 eigenvalues of (default mixing * dielectric matrix)
  average eigenvalue GAMMA=   2.6132
 17.1086  7.3416  2.7871  2.7871  1.6678  0.3012  1.0371  1.0371  0.9529  0.9529
  0.7569  0.5816  0.6253  0.6253  0.6359

 Free energy of the ion-electron system (eV)
  ---------------------------------------------------
  alpha Z        PSCENC =         8.00746852
  Ewald energy   TEWEN  =     13715.66565868
  -Hartree energ DENC   =    -15825.60890880
  -exchange      EXHF   =         0.00000000
  -V(xc)+E(xc)   XCENC  =      -114.52124841
  PAW double counting   =      3100.51729597    -2904.47497620
  entropy T*S    EENTRO =         0.00000000
  eigenvalues    EBANDS =      -459.98996253
  atomic energy  EATOM  =      2448.95636788
  Solvation  Ediel_sol  =         0.00000000
  ---------------------------------------------------
  free energy    TOTEN  =       -31.44830487 eV

  energy without entropy =      -31.44830487  energy(sigma->0) =      -31.44830487


--------------------------------------------------------------------------------------------------------




--------------------------------------- Iteration      1(  21)  ---------------------------------------


    POTLOK:  cpu time    1.9427: real time    1.9502
    SETDIJ:  cpu time    0.0400: real time    0.0393
     EDDAV:  cpu time    9.7855: real time    9.7827
 BZINTS: Fermi energy: -4.343845; 54.000000 electrons
         Band energy:-460.208505;  BLOECHL correction:  0.000000
       DOS:  cpu time    0.0000: real time    0.0014
    CHARGE:  cpu time    1.1938: real time    1.1939
    MIXING:  cpu time    0.0680: real time    0.0666
    --------------------------------------------
      LOOP:  cpu time   13.0300: real time   13.0340

 eigenvalue-minimisations  :  2634
 total energy-change (2. order) :-0.4433799E-02  (-0.9813686E-04)
 number of electron      54.0000000 magnetization       6.1344921
 augmentation part       -4.7204884 magnetization       4.4473254

 Broyden mixing:
  rms(total) = 0.13264E-01    rms(broyden)= 0.13264E-01
  rms(prec ) = 0.13484E-01
  weight for this iteration     100.00

 eigenvalues of (default mixing * dielectric matrix)
  average eigenvalue GAMMA=   2.7877
 20.1356  7.8323  3.3559  2.6938  2.0081  0.3012  1.1479  0.9993  0.9993  0.9461
  0.9461  0.7534  0.6677  0.5815  0.6173  0.6173

 Free energy of the ion-electron system (eV)
  ---------------------------------------------------
  alpha Z        PSCENC =         8.00746852
  Ewald energy   TEWEN  =     13715.66565868
  -Hartree energ DENC   =    -15825.42187877
  -exchange      EXHF   =         0.00000000
  -V(xc)+E(xc)   XCENC  =      -114.51269500
  PAW double counting   =      3094.01476543    -2897.95392033
  entropy T*S    EENTRO =         0.00000000
  eigenvalues    EBANDS =      -460.20850508
  atomic energy  EATOM  =      2448.95636788
  Solvation  Ediel_sol  =         0.00000000
  ---------------------------------------------------
  free energy    TOTEN  =       -31.45273867 eV

  energy without entropy =      -31.45273867  energy(sigma->0) =      -31.45273867


--------------------------------------------------------------------------------------------------------




--------------------------------------- Iteration      1(  22)  ---------------------------------------


    POTLOK:  cpu time    1.9657: real time    1.9662
    SETDIJ:  cpu time    0.0390: real time    0.0383
     EDDAV:  cpu time   10.1015: real time   10.0986
 BZINTS: Fermi energy: -4.361827; 54.000000 electrons
         Band energy:-459.674355;  BLOECHL correction:  0.000000
       DOS:  cpu time    0.0010: real time    0.0014
    CHARGE:  cpu time    1.2248: real time    1.2249
    MIXING:  cpu time    0.0690: real time    0.0684
    --------------------------------------------
      LOOP:  cpu time   13.4010: real time   13.3978

 eigenvalue-minimisations  :  2724
 total energy-change (2. order) :-0.1732207E-02  (-0.4976521E-04)
 number of electron      54.0000000 magnetization       6.0626466
 augmentation part       -4.7215598 magnetization       4.3734966

 Broyden mixing:
  rms(total) = 0.93728E-02    rms(broyden)= 0.93728E-02
  rms(prec ) = 0.95041E-02
  weight for this iteration     100.00

 eigenvalues of (default mixing * dielectric matrix)
  average eigenvalue GAMMA=   2.8526
 21.8367  8.1136  3.6879  2.5019  2.5019  1.5180  0.3012  1.0115  1.0115  1.0246
  0.9136  0.9136  0.7083  0.5832  0.6219  0.6219  0.6239

 Free energy of the ion-electron system (eV)
  ---------------------------------------------------
  alpha Z        PSCENC =         8.00746852
  Ewald energy   TEWEN  =     13715.66565868
  -Hartree energ DENC   =    -15825.94393401
  -exchange      EXHF   =         0.00000000
  -V(xc)+E(xc)   XCENC  =      -114.51427374
  PAW double counting   =      3097.36950987    -2901.32091344
  entropy T*S    EENTRO =         0.00000000
  eigenvalues    EBANDS =      -459.67435463
  atomic energy  EATOM  =      2448.95636788
  Solvation  Ediel_sol  =         0.00000000
  ---------------------------------------------------
  free energy    TOTEN  =       -31.45447088 eV

  energy without entropy =      -31.45447088  energy(sigma->0) =      -31.45447088


--------------------------------------------------------------------------------------------------------




--------------------------------------- Iteration      1(  23)  ---------------------------------------


    POTLOK:  cpu time    1.9407: real time    1.9448
    SETDIJ:  cpu time    0.0400: real time    0.0396
     EDDAV:  cpu time   10.1075: real time   10.1058
 BZINTS: Fermi energy: -4.303291; 54.000000 electrons
         Band energy:-459.019061;  BLOECHL correction:  0.000000
       DOS:  cpu time    0.0020: real time    0.0016
    CHARGE:  cpu time    1.2228: real time    1.2234
    MIXING:  cpu time    0.0740: real time    0.0729
    --------------------------------------------
      LOOP:  cpu time   13.3870: real time   13.3881

 eigenvalue-minimisations  :  2686
 total energy-change (2. order) : 0.1062287E-02  (-0.5073425E-04)
 number of electron      54.0000000 magnetization       6.0275337
 augmentation part       -4.7259504 magnetization       4.3367727

 Broyden mixing:
  rms(total) = 0.60073E-02    rms(broyden)= 0.60069E-02
  rms(prec ) = 0.60864E-02
  weight for this iteration     100.00

 eigenvalues of (default mixing * dielectric matrix)
  average eigenvalue GAMMA=   2.9476
 23.6263  8.4742  4.4977  2.8200  2.6888  1.7715  0.3012  1.0055  1.0055  1.0536
  1.0536  0.8963  0.7587  0.6921  0.6215  0.6215  0.5849  0.5849

 Free energy of the ion-electron system (eV)
  ---------------------------------------------------
  alpha Z        PSCENC =         8.00746852
  Ewald energy   TEWEN  =     13715.66565868
  -Hartree energ DENC   =    -15826.59070915
  -exchange      EXHF   =         0.00000000
  -V(xc)+E(xc)   XCENC  =      -114.50255116
  PAW double counting   =      3101.82534682    -2905.79592939
  entropy T*S    EENTRO =         0.00000000
  eigenvalues    EBANDS =      -459.01906080
  atomic energy  EATOM  =      2448.95636788
  Solvation  Ediel_sol  =         0.00000000
  ---------------------------------------------------
  free energy    TOTEN  =       -31.45340859 eV

  energy without entropy =      -31.45340859  energy(sigma->0) =      -31.45340859


--------------------------------------------------------------------------------------------------------




--------------------------------------- Iteration      1(  24)  ---------------------------------------


    POTLOK:  cpu time    1.9567: real time    1.9640
    SETDIJ:  cpu time    0.0370: real time    0.0369
     EDDAV:  cpu time    9.7655: real time    9.7620
 BZINTS: Fermi energy: -4.321639; 54.000000 electrons
         Band energy:-458.590069;  BLOECHL correction:  0.000000
       DOS:  cpu time    0.0000: real time    0.0013
    CHARGE:  cpu time    1.2188: real time    1.2179
    MIXING:  cpu time    0.0760: real time    0.0758
    --------------------------------------------
      LOOP:  cpu time   13.0540: real time   13.0580

 eigenvalue-minimisations  :  2642
 total energy-change (2. order) :-0.1216734E-01  (-0.3068705E-04)
 number of electron      54.0000000 magnetization       6.0077445
 augmentation part       -4.7257643 magnetization       4.3167501

 Broyden mixing:
  rms(total) = 0.41418E-02    rms(broyden)= 0.41418E-02
  rms(prec ) = 0.42114E-02
  weight for this iteration     100.00

 eigenvalues of (default mixing * dielectric matrix)
  average eigenvalue GAMMA=   3.0284
 24.8332  8.9806  5.5130  3.1189  2.5406  1.9863  1.4935  0.3012  1.0095  1.0095
  1.0255  1.0255  0.8645  0.7315  0.5818  0.6234  0.6234  0.6545  0.6232

 Free energy of the ion-electron system (eV)
  ---------------------------------------------------
  alpha Z        PSCENC =         8.00746852
  Ewald energy   TEWEN  =     13715.66565868
  -Hartree energ DENC   =    -15827.02383184
  -exchange      EXHF   =         0.00000000
  -V(xc)+E(xc)   XCENC  =      -114.51321761
  PAW double counting   =      3101.53028455    -2905.49823672
  entropy T*S    EENTRO =         0.00000000
  eigenvalues    EBANDS =      -458.59006940
  atomic energy  EATOM  =      2448.95636788
  Solvation  Ediel_sol  =         0.00000000
  ---------------------------------------------------
  free energy    TOTEN  =       -31.46557594 eV

  energy without entropy =      -31.46557594  energy(sigma->0) =      -31.46557594


--------------------------------------------------------------------------------------------------------




--------------------------------------- Iteration      1(  25)  ---------------------------------------


    POTLOK:  cpu time    1.9667: real time    1.9658
    SETDIJ:  cpu time    0.0400: real time    0.0403
     EDDAV:  cpu time    9.3776: real time    9.3751
 BZINTS: Fermi energy: -4.329031; 54.000000 electrons
         Band energy:-458.208759;  BLOECHL correction:  0.000000
       DOS:  cpu time    0.0010: real time    0.0014
    CHARGE:  cpu time    1.2268: real time    1.2261
    MIXING:  cpu time    0.0710: real time    0.0712
    --------------------------------------------
      LOOP:  cpu time   12.6831: real time   12.6799

 eigenvalue-minimisations  :  2432
 total energy-change (2. order) :-0.1340011E-01  (-0.3704120E-04)
 number of electron      54.0000000 magnetization       6.0018885
 augmentation part       -4.7239827 magnetization       4.3118048

 Broyden mixing:
  rms(total) = 0.17328E-02    rms(broyden)= 0.17326E-02
  rms(prec ) = 0.18068E-02
  weight for this iteration     100.00

 eigenvalues of (default mixing * dielectric matrix)
  average eigenvalue GAMMA=   3.0726
 25.5892  9.4764  6.3727  2.9277  2.9277  2.3453  1.7604  0.3012  1.0096  1.0096
  1.0823  1.0053  1.0053  0.8138  0.7103  0.5828  0.6225  0.6225  0.6622  0.6253

 Free energy of the ion-electron system (eV)
  ---------------------------------------------------
  alpha Z        PSCENC =         8.00746852
  Ewald energy   TEWEN  =     13715.66565868
  -Hartree energ DENC   =    -15827.41668286
  -exchange      EXHF   =         0.00000000
  -V(xc)+E(xc)   XCENC  =      -114.52374252
  PAW double counting   =      3099.86993033    -2903.82921729
  entropy T*S    EENTRO =         0.00000000
  eigenvalues    EBANDS =      -458.20875879
  atomic energy  EATOM  =      2448.95636788
  Solvation  Ediel_sol  =         0.00000000
  ---------------------------------------------------
[...]
     34      -1.4577      0.00000
     35       0.9055      0.00000
     36       1.2550      0.00000
     37       1.5533      0.00000
     38       1.6820      0.00000

 k-point    15 :       0.2727    0.2727    0.0000
  band No.  band energies     occupation 
      1     -16.6923      1.00000
      2     -16.4883      1.00000
      3     -16.2450      1.00000
      4     -16.1552      1.00000
      5     -16.0731      1.00000
      6     -16.0059      1.00000
      7      -8.1632      1.00000
      8      -7.9107      1.00000
      9      -7.5453      1.00000
     10      -7.5136      1.00000
     11      -7.2232      1.00000
     12      -7.0749      1.00000
     13      -6.9356      1.00000
     14      -6.6229      1.00000
     15      -6.3639      1.00000
     16      -6.1067      1.00000
     17      -5.9780      1.00000
     18      -5.7254      1.00000
     19      -5.6133      1.00000
     20      -5.3501      1.00000
     21      -5.3120      1.00000
     22      -5.2459      1.00000
     23      -4.9774      1.00000
     24      -4.9632      1.00000
     25      -2.3878      0.00000
     26      -2.3209      0.00000
     27      -2.1874      0.00000
     28      -2.1535      0.00000
     29      -1.9952      0.00000
     30      -1.9636      0.00000
     31      -1.6250      0.00000
     32      -1.5699      0.00000
     33      -1.5366      0.00000
     34      -1.4404      0.00000
     35       0.9911      0.00000
     36       1.0971      0.00000
     37       1.4959      0.00000
     38       1.6629      0.00000

 k-point    16 :       0.3636    0.2727    0.0000
  band No.  band energies     occupation 
      1     -16.6289      1.00000
      2     -16.5485      1.00000
      3     -16.2556      1.00000
      4     -16.1264      1.00000
      5     -16.0962      1.00000
      6     -16.0096      1.00000
      7      -8.0914      1.00000
      8      -7.9334      1.00000
      9      -7.5359      1.00000
     10      -7.4153      1.00000
     11      -7.3859      1.00000
     12      -6.9928      1.00000
     13      -6.9132      1.00000
     14      -6.8025      1.00000
     15      -6.3444      1.00000
     16      -6.1329      1.00000
     17      -5.8521      1.00000
     18      -5.7017      1.00000
     19      -5.6140      1.00000
     20      -5.3799      1.00000
     21      -5.2882      1.00000
     22      -5.2676      1.00000
     23      -4.9916      1.00000
     24      -4.9552      1.00000
     25      -2.3655      0.00000
     26      -2.3382      0.00000
     27      -2.2010      0.00000
     28      -2.1671      0.00000
     29      -1.9840      0.00000
     30      -1.9768      0.00000
     31      -1.6188      0.00000
     32      -1.5555      0.00000
     33      -1.5405      0.00000
     34      -1.4169      0.00000
     35       0.9465      0.00000
     36       1.0582      0.00000
     37       1.5127      0.00000
     38       1.7792      0.00000


--------------------------------------------------------------------------------------------------------


 soft charge-density along one line, spin component           1
         0         1         2         3         4         5         6         7         8         9
 total charge-density along one line
 
 soft charge-density along one line, spin component           2
         0         1         2         3         4         5         6         7         8         9
 total charge-density along one line
 
 pseudopotential strength for first ion, spin component:           1
 -9.659   0.100  -0.000   0.000   0.000  -9.988   0.097  -0.000
  0.100  -9.589   0.000   0.000  -0.000   0.097  -9.920   0.000
 -0.000   0.000  -9.741   0.000   0.000  -0.000   0.000 -10.068
  0.000   0.000   0.000  -9.589  -0.100   0.000   0.000   0.000
  0.000  -0.000   0.000  -0.100  -9.659   0.000  -0.000   0.000
 -9.988   0.097  -0.000   0.000   0.000 -10.279   0.094  -0.000
  0.097  -9.920   0.000   0.000  -0.000   0.094 -10.213   0.000
 -0.000   0.000 -10.068   0.000   0.000  -0.000   0.000 -10.357
  0.000   0.000   0.000  -9.920  -0.097   0.000   0.000   0.000
  0.000  -0.000   0.000  -0.097  -9.988   0.000  -0.000   0.000
 -0.000  -0.000   0.001  -0.000   0.000  -0.000  -0.000   0.001
 -0.000  -0.000   0.002  -0.000   0.000  -0.000  -0.000   0.001
 -0.000  -0.000  -0.000   0.000  -0.001  -0.000  -0.000  -0.000
  0.000   0.000   0.000  -0.000   0.000   0.000   0.000   0.000
 -0.001   0.000   0.000   0.000  -0.000  -0.001   0.000   0.000
 -0.000  -0.000  -0.000   0.000  -0.002  -0.000  -0.000  -0.000
  0.000   0.000   0.000  -0.000   0.000   0.000   0.000   0.000
 -0.002   0.000   0.000   0.000  -0.000  -0.002   0.000   0.000
 pseudopotential strength for first ion, spin component:           2
 -7.929  -0.206   0.000   0.000   0.000  -8.315  -0.201   0.000
 -0.206  -8.095  -0.000  -0.000  -0.000  -0.201  -8.478  -0.000
  0.000  -0.000  -7.794  -0.000  -0.000   0.000  -0.000  -8.183
  0.000  -0.000  -0.000  -8.095   0.206   0.000  -0.000  -0.000
  0.000  -0.000  -0.000   0.206  -7.929   0.000  -0.000  -0.000
 -8.315  -0.201   0.000   0.000   0.000  -8.663  -0.197   0.000
 -0.201  -8.478  -0.000  -0.000  -0.000  -0.197  -8.822  -0.000
  0.000  -0.000  -8.183  -0.000  -0.000   0.000  -0.000  -8.534
  0.000  -0.000  -0.000  -8.478   0.201   0.000  -0.000  -0.000
  0.000  -0.000  -0.000   0.201  -8.315   0.000  -0.000  -0.000
  0.000  -0.000   0.003  -0.000  -0.000   0.000  -0.000   0.003
  0.000  -0.000   0.006  -0.000  -0.000   0.000  -0.000   0.006
  0.000  -0.000   0.000   0.000   0.000   0.000  -0.000   0.000
  0.000  -0.000   0.000   0.000   0.000   0.000  -0.000   0.000
  0.000   0.000  -0.000   0.000   0.000   0.000   0.000  -0.000
  0.000  -0.000   0.000   0.000   0.001   0.000  -0.000   0.000
  0.000  -0.000   0.000   0.000   0.000   0.000  -0.000   0.000
  0.001   0.000  -0.000   0.000   0.000   0.001   0.000  -0.000
 total augmentation occupancy for first ion, spin component:           1
  2.502  -1.065   0.000   0.000   0.000  -1.501   0.242  -0.000  -0.000   0.000   0.000   0.000   0.000   0.000   0.060  -0.000
 -1.065   1.638  -0.000  -0.000   0.000   0.239  -1.256   0.000   0.000  -0.000   0.000   0.000   0.000   0.000  -0.018   0.000
  0.000  -0.000   3.156  -0.000  -0.000  -0.000   0.000  -1.582   0.000   0.000   0.003  -0.003  -0.000  -0.000   0.000   0.000
  0.000  -0.000  -0.000   1.638   1.065  -0.000   0.000   0.000  -1.256  -0.239  -0.000   0.000   0.018   0.000   0.000   0.000
  0.000   0.000  -0.000   1.065   2.502   0.000  -0.000   0.000  -0.242  -1.501   0.000   0.000   0.060   0.000  -0.000  -0.001
 -1.501   0.239  -0.000  -0.000   0.000   1.465   0.399   0.000  -0.000   0.000   0.000   0.000  -0.000  -0.000  -0.066   0.000
  0.242  -1.256   0.000   0.000  -0.000   0.399   1.701   0.000  -0.000  -0.000   0.000   0.000   0.000   0.000   0.017   0.000
 -0.000   0.000  -1.582   0.000   0.000   0.000   0.000   1.095   0.000  -0.000  -0.007   0.003   0.000  -0.000  -0.000  -0.000
 -0.000   0.000   0.000  -1.256  -0.242  -0.000  -0.000   0.000   1.701  -0.399   0.000   0.000  -0.017   0.000   0.000  -0.000
  0.000  -0.000   0.000  -0.239  -1.501   0.000  -0.000  -0.000  -0.399   1.465  -0.000  -0.000  -0.066   0.000   0.000   0.002
  0.000   0.000   0.003   0.000   0.000   0.000   0.000  -0.007  -0.000   0.000   1.536  -0.149   0.000   0.000   0.000  -0.000
  0.000   0.000  -0.003   0.000   0.000   0.000   0.000   0.003  -0.000  -0.000  -0.149   0.020   0.000   0.000   0.000   0.000
  0.000   0.000  -0.000   0.018   0.060  -0.000   0.000   0.000  -0.017  -0.066   0.000   0.000   0.215   0.000  -0.000  -0.004
  0.000   0.000  -0.000   0.000   0.000  -0.000  -0.000  -0.000   0.000   0.000   0.000  -0.000   0.000   0.214   0.000   0.000
  0.060  -0.018   0.000   0.000  -0.000  -0.066   0.017  -0.000   0.000   0.000   0.000   0.000  -0.000  -0.000   0.215   0.000
 -0.000   0.000   0.000   0.000  -0.001   0.000   0.000  -0.000  -0.000   0.002   0.000   0.000  -0.004   0.000   0.000   0.000
  0.000   0.000   0.000   0.000   0.000  -0.000   0.000  -0.000   0.000   0.000  -0.000  -0.000   0.000  -0.004   0.000   0.000
 -0.001  -0.000  -0.000   0.000   0.000   0.002   0.000   0.000   0.000  -0.000   0.000   0.000   0.000   0.000  -0.004  -0.000
 total augmentation occupancy for first ion, spin component:           2
  1.919  -1.453   0.000   0.000   0.000  -0.630   0.826  -0.000  -0.000  -0.000   0.000   0.000   0.000  -0.000   0.014   0.000
 -1.453   0.811  -0.000  -0.000   0.000   0.824  -0.002   0.000   0.000  -0.000   0.000   0.000   0.000   0.000  -0.015   0.000
  0.000  -0.000   2.874  -0.000  -0.000  -0.000   0.000  -1.164   0.000   0.000  -0.010   0.000  -0.000   0.000   0.000  -0.000
  0.000  -0.000  -0.000   0.811   1.453  -0.000   0.000   0.000  -0.002  -0.824   0.000  -0.000   0.015   0.000   0.000   0.000
  0.000   0.000  -0.000   1.453   1.919  -0.000  -0.000   0.000  -0.826  -0.630  -0.000   0.000   0.014   0.000  -0.000   0.000
 -0.630   0.824  -0.000  -0.000  -0.000   0.112  -0.543   0.000   0.000   0.000   0.000   0.000  -0.000   0.000  -0.006  -0.000
  0.826  -0.002   0.000   0.000  -0.000  -0.543  -0.302  -0.000   0.000   0.000   0.000   0.000   0.000   0.000   0.006   0.000
 -0.000   0.000  -1.164   0.000   0.000   0.000  -0.000   0.468  -0.000  -0.000   0.005  -0.000   0.000   0.000  -0.000   0.000
 -0.000   0.000   0.000  -0.002  -0.826   0.000   0.000  -0.000  -0.302   0.543  -0.000   0.000  -0.006   0.000   0.000  -0.000
 -0.000  -0.000   0.000  -0.824  -0.630   0.000   0.000  -0.000   0.543   0.112  -0.000   0.000  -0.006   0.000   0.000  -0.000
  0.000   0.000  -0.010   0.000   0.000   0.000   0.000   0.005  -0.000  -0.000   0.010   0.041   0.000  -0.000   0.000  -0.000
  0.000   0.000   0.000  -0.000   0.000   0.000   0.000  -0.000  -0.000  -0.000   0.041  -0.007   0.000   0.000   0.000  -0.000
  0.000   0.000  -0.000   0.015   0.014  -0.000   0.000   0.000  -0.006  -0.006  -0.000   0.000   0.020   0.000  -0.000   0.001
  0.000   0.000   0.000   0.000   0.000   0.000   0.000   0.000   0.000   0.000  -0.000  -0.000   0.000   0.017   0.000   0.000
  0.014  -0.015   0.000   0.000  -0.000  -0.006   0.006  -0.000   0.000   0.000   0.000   0.000  -0.000   0.000   0.020  -0.000
  0.000   0.000  -0.000   0.000   0.000  -0.000   0.000   0.000  -0.000  -0.000   0.000   0.000   0.001   0.000  -0.000  -0.000
 -0.000   0.000   0.000   0.000   0.000  -0.000   0.000  -0.000  -0.000   0.000   0.000   0.000   0.000   0.001   0.000   0.000
  0.000  -0.000   0.000  -0.000  -0.000  -0.000   0.000  -0.000   0.000   0.000   0.000   0.000  -0.000   0.000   0.001   0.000


------------------------ aborting loop because EDIFF is reached ----------------------------------------


 


 total charge     
 
# of ion       s       p       d       tot
------------------------------------------
    1        0.323   0.412   4.185   4.920
    2        0.323   0.412   4.185   4.920
    3        1.511   2.767   0.022   4.300
    4        1.512   2.767   0.021   4.301
    5        1.512   2.767   0.021   4.301
    6        1.514   2.759   0.021   4.295
    7        1.511   2.767   0.022   4.300
    8        1.514   2.759   0.021   4.295
--------------------------------------------------
tot          9.721  17.410   8.499  35.630
 


 magnetization (x)
 
# of ion       s       p       d       tot
------------------------------------------
    1        0.039   0.045   3.018   3.101
    2        0.039   0.045   3.018   3.101
    3       -0.002  -0.081   0.005  -0.077
    4       -0.002  -0.081   0.005  -0.078
    5       -0.002  -0.081   0.005  -0.078
    6       -0.002  -0.081   0.005  -0.078
    7       -0.002  -0.081   0.005  -0.077
    8       -0.002  -0.081   0.005  -0.078
--------------------------------------------------
tot          0.067  -0.397   6.065   5.735
 
    CHARGE:  cpu time    1.2248: real time    1.2256
    FORLOC:  cpu time    0.0680: real time    0.0666
    FORNL :  cpu time    1.1548: real time    1.1548
    STRESS:  cpu time    3.4105: real time    3.4099
    FORCOR:  cpu time    1.9487: real time    1.9479
    FORHAR:  cpu time    0.2440: real time    0.2436
    MIXING:  cpu time    0.1860: real time    0.1869
    OFIELD:  cpu time    0.0000: real time    0.0000

  FORCE on cell =-STRESS in cart. coord.  units (eV):
  Direction    XX          YY          ZZ          XY          YZ          ZX
  --------------------------------------------------------------------------------------
  Alpha Z     8.00747     8.00747     8.00747
  Ewald   15162.46829 15162.46829-16609.27057    -0.00000     0.00000     0.00000
  Hartree 15568.20286 15568.20286-15308.69203    -0.00000     0.00000     0.00000
  E(xc)    -215.64210  -215.64210  -216.10868    -0.00000    -0.00000    -0.00000
  Local  -31721.15047-31721.15054 30926.23887    -0.00007     0.00000     0.00000
  n-local   816.93755   817.27635   817.39467    -0.74885    -0.50566     0.12737
  augment  -160.24919  -160.24911  -160.73204     0.00007     0.00000     0.00000
  Kinetic   541.60465   540.73413   543.08132     1.31622    -0.34601     0.01418
  Fock        0.00000     0.00000     0.00000     0.00000     0.00000     0.00000
  -------------------------------------------------------------------------------------
  Total      -0.08679    -0.08679    -0.08099    -0.00000     0.00000     0.00000
  in kB      -0.08187    -0.08187    -0.07640    -0.00000     0.00000     0.00000
  external pressure =       -0.08 kB  Pullay stress =        0.00 kB


 VOLUME and BASIS-vectors are now :
 -----------------------------------------------------------------------------
  energy-cutoff  :      350.00
  volume of cell :     1698.38
      direct lattice vectors                 reciprocal lattice vectors
     7.002000000  0.000000000  0.000000000     0.142816338  0.082455051  0.000000000
    -3.501000000  6.063909877  0.000000000     0.000000000  0.164910103  0.000000000
     0.000000000  0.000000000 40.000000000     0.000000000  0.000000000  0.025000000

  length of vectors
     7.002000000  7.002000000 40.000000000     0.164910103  0.164910103  0.025000000


 FORCES acting on ions
    electron-ion (+dipol)            ewald-force                    non-local-force                 convergence-correction
 -----------------------------------------------------------------------------------------------
   0.202E-06 -.116E-06 0.982E-11   -.113E-11 0.639E-12 0.142E-13   -.114E-17 0.188E-17 0.953E-21   0.614E-13 -.336E-12 0.104E-11
   -.202E-06 0.116E-06 -.530E-11   -.103E-10 0.597E-11 -.284E-13   0.929E-18 -.133E-17 0.953E-21   -.407E-12 0.259E-12 0.115E-11
   -.263E+02 -.455E+02 0.404E+03   0.272E+02 0.472E+02 -.406E+03   -.939E+00 -.163E+01 0.268E+01   -.430E-07 -.745E-07 -.902E-06
   0.526E+02 0.297E-06 0.404E+03   -.545E+02 -.182E-11 -.406E+03   0.188E+01 -.738E-18 0.268E+01   0.860E-07 -.360E-11 -.902E-06
   -.526E+02 -.297E-06 -.404E+03   0.545E+02 -.103E-10 0.406E+03   -.188E+01 0.118E-17 -.268E+01   -.860E-07 0.361E-11 0.902E-06
   0.263E+02 -.455E+02 -.404E+03   -.272E+02 0.472E+02 0.406E+03   0.939E+00 -.163E+01 -.268E+01   0.430E-07 -.745E-07 0.902E-06
   0.263E+02 0.455E+02 -.404E+03   -.272E+02 -.472E+02 0.406E+03   0.939E+00 0.163E+01 -.268E+01   0.430E-07 0.745E-07 0.902E-06
   -.263E+02 0.455E+02 0.404E+03   0.272E+02 -.472E+02 -.406E+03   -.939E+00 0.163E+01 0.268E+01   -.430E-07 0.745E-07 -.902E-06
 -----------------------------------------------------------------------------------------------
   0.142E-09 -.709E-10 -.732E-10   0.711E-14 0.000E+00 0.000E+00   0.444E-15 0.222E-15 -.444E-15   -.499E-12 -.827E-13 0.764E-11
 
 
 POSITION                                       TOTAL-FORCE (eV/Angst)
 -----------------------------------------------------------------------------------
      0.00000      0.00000     20.00000         0.000000     -0.000000      0.000000
      0.00000      4.04261     20.00000         0.000000     -0.000000      0.000000
     -1.26064      5.90172     18.43852         0.000000      0.000001     -0.000000
     -0.97972      2.02130     18.43852        -0.000001     -0.000000     -0.000000
      0.97972      2.02130     21.56148         0.000001     -0.000000      0.000000
      1.26064      5.90172     21.56148        -0.000000      0.000001      0.000000
     -2.24036      4.20479     21.56148        -0.000000     -0.000001      0.000000
      2.24036      4.20479     18.43852         0.000000     -0.000001     -0.000000
 -----------------------------------------------------------------------------------
    total drift:                                0.000000     -0.000000     -0.000000


--------------------------------------------------------------------------------------------------------



  FREE ENERGIE OF THE ION-ELECTRON SYSTEM (eV)
  ---------------------------------------------------
  free  energy   TOTEN  =       -31.48746987 eV

  energy  without entropy=      -31.48746987  energy(sigma->0) =      -31.48746987
 
 d Force = 0.1424573E-11[-0.313E-12, 0.316E-11]  d Energy = 0.6157279E-09-0.614E-09
 d Force =-0.7486745E-03[-0.749E-03,-0.749E-03]  d Ewald  =-0.7486747E-03 0.229E-09


--------------------------------------------------------------------------------------------------------


    POTLOK:  cpu time    2.0017: real time    2.0002


--------------------------------------------------------------------------------------------------------




--------------------------------------------------------------------------------------------------------


  
 reached required accuracy - stopping structural energy minimisation
 writing wavefunctions
     LOOP+:  cpu time   68.5586: real time   81.4663
    4ORBIT:  cpu time    0.0000: real time    0.0000
 


 total charge     
 
# of ion       s       p       d       tot
------------------------------------------
    1        0.323   0.412   4.185   4.920
    2        0.323   0.412   4.185   4.920
    3        1.511   2.767   0.022   4.300
    4        1.512   2.767   0.021   4.301
    5        1.512   2.767   0.021   4.301
    6        1.514   2.759   0.021   4.295
    7        1.511   2.767   0.022   4.300
    8        1.514   2.759   0.021   4.295
--------------------------------------------------
tot          9.721  17.410   8.499  35.630
 


 magnetization (x)
 
# of ion       s       p       d       tot
------------------------------------------
    1        0.039   0.045   3.018   3.101
    2        0.039   0.045   3.018   3.101
    3       -0.002  -0.081   0.005  -0.077
    4       -0.002  -0.081   0.005  -0.078
    5       -0.002  -0.081   0.005  -0.078
    6       -0.002  -0.081   0.005  -0.078
    7       -0.002  -0.081   0.005  -0.077
    8       -0.002  -0.081   0.005  -0.078
--------------------------------------------------
tot          0.067  -0.397   6.065   5.735
 
 BZINTS: Fermi energy: -4.296917; 54.000000 electrons
         Band energy:-457.914529;  BLOECHL correction:  0.000000

 total amount of memory used by VASP MPI-rank0   377505. kBytes
=======================================================================

   base      :      30000. kBytes
   nonl-proj :      60270. kBytes
   fftplans  :      47218. kBytes
   grid      :     115531. kBytes
   one-center:        124. kBytes
   wavefun   :     124362. kBytes
 
  
  
 General timing and accounting informations for this job:
 ========================================================
  
                  Total CPU time used (sec):      995.875
                            User time (sec):      966.597
                          System time (sec):       29.278
                         Elapsed time (sec):     1013.659
  
                   Maximum memory used (kb):      519260.
                   Average memory used (kb):           0.
  
                          Minor page faults:      2373234
                          Major page faults:           22
                 Voluntary context switches:        12122
