 vasp.5.4.4.18Apr17-6-g9f103f2a35 (build May 10 2017 09:44:01) complex          
  
 executed on      IFC91_ompi_syO1 date 2018.04.16  21:29:32
 running on   32 total cores
 distrk:  each k-point on    8 cores,    4 groups
 distr:  one band on NCORES_PER_BAND=   4 cores,    2 groups


--------------------------------------------------------------------------------------------------------


 INCAR:
 POTCAR:    PAW_PBE Cr 06Sep2000                  
 POTCAR:    PAW_PBE I 08Apr2002                   

 ----------------------------------------------------------------------------- 
|                                                                             |
|           W    W    AA    RRRRR   N    N  II  N    N   GGGG   !!!           |
|           W    W   A  A   R    R  NN   N  II  NN   N  G    G  !!!           |
|           W    W  A    A  R    R  N N  N  II  N N  N  G       !!!           |
|           W WW W  AAAAAA  RRRRR   N  N N  II  N  N N  G  GGG   !            |
|           WW  WW  A    A  R   R   N   NN  II  N   NN  G    G                |
|           W    W  A    A  R    R  N    N  II  N    N   GGGG   !!!           |
|                                                                             |
|      You have enabled k-point parallelism (KPAR>1).                         |
|      This developmental code was originally  written by Paul Kent at ORNL,  |
|      and carefully double checked in Vienna.                                |
|      GW as well as linear response parallelism added by Martijn Marsman     |
|      and Georg Kresse.                                                      |
|      Carefully verify results versus KPAR=1.                                |
|      Report problems to Paul Kent and Vienna.                               |
|                                                                             |
 ----------------------------------------------------------------------------- 

 POTCAR:    PAW_PBE Cr 06Sep2000                  
   VRHFIN =Cr : d5 s1                                                           
   LEXCH  = PE                                                                  
   EATOM  =   276.8859 eV,   20.3505 Ry                                         
                                                                                
   TITEL  = PAW_PBE Cr 06Sep2000                                                
   LULTRA =        F    use ultrasoft PP ?                                      
   IUNSCR =        1    unscreen: 0-lin 1-nonlin 2-no                           
   RPACOR =    2.080    partial core radius                                     
   POMASS =   51.996; ZVAL   =    6.000    mass and valenz                      
   RCORE  =    2.500    outmost cutoff radius                                   
   RWIGS  =    2.500; RWIGS  =    1.323    wigner-seitz radius (au A)           
   ENMAX  =  227.080; ENMIN  =  170.310 eV                                      
   RCLOC  =    1.721    cutoff for local pot                                    
   LCOR   =        T    correct aug charges                                     
   LPAW   =        T    paw PP                                                  
   EAUG   =  402.108                                                            
   DEXC   =    0.000                                                            
   RMAX   =    2.552    core radius for proj-oper                               
   RAUG   =    1.300    factor for augmentation sphere                          
   RDEP   =    2.609    radius for radial grids                                 
   RDEPT  =    2.065    core radius for aug-charge                              
                                                                                
   Atomic configuration                                                         
    9 entries                                                                   
     n  l   j            E        occ.                                          
     1  0  0.50     -5880.4963   2.0000                                         
     2  0  0.50      -667.0865   2.0000                                         
     2  1  1.50      -560.6250   6.0000                                         
     3  0  0.50       -73.9860   2.0000                                         
     3  1  1.50       -45.4378   6.0000                                         
     3  2  2.50        -2.9137   5.0000                                         
     4  0  0.50        -4.0071   1.0000                                         
     4  1  0.50        -1.2789   0.0000                                         
     4  3  2.50        -1.3606   0.0000                                         
   Description                                                                  
     l       E           TYP  RCUT    TYP  RCUT                                 
     2     -2.9136677     23  2.500                                             
     2     -4.2742503     23  2.500                                             
     0     -4.0071322     23  2.500                                             
     0      9.4498801     23  2.500                                             
     1     -5.4423304     23  2.500                                             
     1     27.2116520     23  2.500                                             
  local pseudopotential read in
  partial core-charges read in
  partial kinetic energy density read in
  atomic valenz-charges read in
  non local Contribution for L=           2  read in
    real space projection operators read in
  non local Contribution for L=           2  read in
    real space projection operators read in
  non local Contribution for L=           0  read in
    real space projection operators read in
  non local Contribution for L=           0  read in
    real space projection operators read in
  non local Contribution for L=           1  read in
    real space projection operators read in
  non local Contribution for L=           1  read in
    real space projection operators read in
    PAW grid and wavefunctions read in
 
   number of l-projection  operators is LMAX  =           6
   number of lm-projection operators is LMMAX =          18
 
 POTCAR:    PAW_PBE I 08Apr2002                   
   VRHFIN =I : s2p5                                                             
   LEXCH  = PE                                                                  
   EATOM  =   315.8678 eV,   23.2156 Ry                                         
                                                                                
   TITEL  = PAW_PBE I 08Apr2002                                                 
   LULTRA =        F    use ultrasoft PP ?                                      
   IUNSCR =        1    unscreen: 0-lin 1-nonlin 2-no                           
   RPACOR =    2.200    partial core radius                                     
   POMASS =  126.904; ZVAL   =    7.000    mass and valenz                      
   RCORE  =    2.300    outmost cutoff radius                                   
   RWIGS  =    2.810; RWIGS  =    1.487    wigner-seitz radius (au A)           
   ENMAX  =  175.647; ENMIN  =  131.735 eV                                      
   ICORE  =        3    local potential                                         
   LCOR   =        T    correct aug charges                                     
   LPAW   =        T    paw PP                                                  
   EAUG   =  370.139                                                            
   DEXC   =    0.000                                                            
   RMAX   =    2.359    core radius for proj-oper                               
   RAUG   =    1.300    factor for augmentation sphere                          
   RDEP   =    2.392    radius for radial grids                                 
   RDEPT  =    2.170    core radius for aug-charge                              
                                                                                
   Atomic configuration                                                         
   13 entries                                                                   
     n  l   j            E        occ.                                          
     1  0  0.50    -32976.3739   2.0000                                         
     2  0  0.50     -5094.5933   2.0000                                         
     2  1  1.50     -4572.0131   6.0000                                         
     3  0  0.50     -1028.2813   2.0000                                         
     3  1  1.50      -859.0250   6.0000                                         
     3  2  2.50      -605.7620  10.0000                                         
     4  0  0.50      -180.5540   2.0000                                         
     4  1  1.50      -127.5306   6.0000                                         
     4  2  2.50       -50.2720  10.0000                                         
     5  0  0.50       -17.4058   2.0000                                         
     5  1  0.50        -7.0851   5.0000                                         
     5  2  1.50        -7.0750   0.0000                                         
     4  3  2.50        -7.0750   0.0000                                         
   Description                                                                  
     l       E           TYP  RCUT    TYP  RCUT                                 
     0    -17.4058016     23  2.300                                             
     0    -18.7663842     23  2.300                                             
     1     -7.0850686     23  2.300                                             
     1     -4.2150896     23  2.300                                             
     2     -7.0750295     23  2.300                                             
     3     -1.3605826     23  2.300                                             
  local pseudopotential read in
  partial core-charges read in
  partial kinetic energy density read in
  atomic valenz-charges read in
  non local Contribution for L=           0  read in
    real space projection operators read in
  non local Contribution for L=           0  read in
    real space projection operators read in
  non local Contribution for L=           1  read in
    real space projection operators read in
  non local Contribution for L=           1  read in
    real space projection operators read in
  non local Contribution for L=           2  read in
    real space projection operators read in
    PAW grid and wavefunctions read in
 
   number of l-projection  operators is LMAX  =           5
   number of lm-projection operators is LMMAX =          13
 
  PAW_PBE Cr 06Sep2000                  :
 energy of atom  1       EATOM= -276.8859
 kinetic energy error for atom=    0.0128 (will be added to EATOM!!)
  PAW_PBE I 08Apr2002                   :
 energy of atom  2       EATOM= -315.8678
 kinetic energy error for atom=    0.0037 (will be added to EATOM!!)
 
 
 POSCAR: monolayer CrI3 (R3 structure)           
  positions in cartesian coordinates
  No initial velocities read in
 exchange correlation table for  LEXCH =        8
   RHO(1)=    0.500       N(1)  =     2000
   RHO(2)=  100.500       N(2)  =     4000
 


--------------------------------------------------------------------------------------------------------


 ion  position               nearest neighbor table
   1  0.000  0.000  0.500-   3 2.78   4 2.78   5 2.78   6 2.78   7 2.78   8 2.78
   2  0.333  0.667  0.500-   5 2.78   8 2.78   6 2.78   4 2.78   7 2.78   3 2.78
   3  0.333  0.000  0.462-   1 2.78   2 2.78
   4  0.000  0.333  0.462-   2 2.78   1 2.78
   5  0.333  0.333  0.538-   2 2.78   1 2.78
   6  0.667  0.000  0.538-   2 2.78   1 2.78
   7  0.000  0.667  0.538-   1 2.78   2 2.78
   8  0.667  0.667  0.462-   2 2.78   1 2.78
 
  LATTYP: Found a hexagonal cell.
 ALAT       =     7.0000000000
 C/A-ratio  =     5.7142857143
  
  Lattice vectors:
  
 A1 = (   7.0000000000,   0.0000000000,   0.0000000000)
 A2 = (  -3.5000000000,   6.0621778265,   0.0000000000)
 A3 = (   0.0000000000,   0.0000000000,  40.0000000000)


Analysis of symmetry for initial positions (statically):
=====================================================================
 Subroutine PRICEL returns:
 Original cell was already a primitive cell.
 

 Routine SETGRP: Setting up the symmetry group for a 
 hexagonal supercell.


 Subroutine GETGRP returns: Found 12 space group operations
 (whereof  6 operations were pure point group operations)
 out of a pool of 24 trial point group operations.


The static configuration has the point symmetry D_3 .
 The point group associated with its full space group is D_3d.


Analysis of symmetry for dynamics (positions and initial velocities):
=====================================================================
 Subroutine PRICEL returns:
 Original cell was already a primitive cell.
 

 Routine SETGRP: Setting up the symmetry group for a 
 hexagonal supercell.


 Subroutine GETGRP returns: Found 12 space group operations
 (whereof  6 operations were pure point group operations)
 out of a pool of 24 trial point group operations.


The dynamic configuration has the point symmetry D_3 .
 The point group associated with its full space group is D_3d.


Analysis of structural, dynamic, and magnetic symmetry:
=====================================================================
 Subroutine PRICEL returns:
 Original cell was already a primitive cell.
 

 Routine SETGRP: Setting up the symmetry group for a 
 hexagonal supercell.


 Subroutine GETGRP returns: Found  6 space group operations
 (whereof  3 operations were pure point group operations)
 out of a pool of 24 trial point group operations.


The (compounded) configuration has the point symmetry C_3 .
 The point group associated with its full space group is S_6 .


 Subroutine INISYM returns: Found  6 space group operations
 (whereof  3 operations are pure point group operations),
 and found     1 'primitive' translations

 
 
 KPOINTS: K-Points   ! First line comment         

Automatic generation of k-mesh.
Space group operators:
 irot       det(A)        alpha          n_x          n_y          n_z        tau_x        tau_y        tau_z
    1     1.000000     0.000000     1.000000     0.000000     0.000000     0.000000     0.000000     0.000000
    2     1.000000   120.000000     0.000000     0.000000    -1.000000     0.000000     0.000000     0.000000
    3     1.000000   120.000000     0.000000     0.000000     1.000000     0.000000     0.000000     0.000000
    4    -1.000000     0.000000     1.000000     0.000000     0.000000     0.333333     0.666667     0.000000
    5    -1.000000   120.000000     0.000000     0.000000    -1.000000     0.333333     0.666667     0.000000
    6    -1.000000   120.000000     0.000000     0.000000     1.000000     0.333333     0.666667     0.000000
 
 Subroutine IBZKPT returns following result:
 ===========================================
 
 Found     21 irreducible k-points:
 
 Following reciprocal coordinates:
            Coordinates               Weight
  0.000000  0.000000  0.000000      1.000000
  0.090909  0.000000  0.000000      6.000000
  0.181818  0.000000  0.000000      6.000000
  0.272727  0.000000  0.000000      6.000000
  0.363636  0.000000  0.000000      6.000000
  0.454545  0.000000  0.000000      6.000000
  0.090909  0.090909  0.000000      6.000000
  0.181818  0.090909  0.000000      6.000000
  0.272727  0.090909  0.000000      6.000000
  0.363636  0.090909  0.000000      6.000000
  0.454545  0.090909  0.000000      6.000000
 -0.454545  0.090909  0.000000      6.000000
 -0.363636  0.090909  0.000000      6.000000
 -0.272727  0.090909  0.000000      6.000000
  0.181818  0.181818  0.000000      6.000000
  0.272727  0.181818  0.000000      6.000000
  0.363636  0.181818  0.000000      6.000000
  0.454545  0.181818  0.000000      6.000000
 -0.454545  0.181818  0.000000      6.000000
  0.272727  0.272727  0.000000      6.000000
  0.363636  0.272727  0.000000      6.000000
 
 Following cartesian coordinates:
            Coordinates               Weight
  0.000000  0.000000  0.000000      1.000000
  0.012987  0.007498  0.000000      6.000000
  0.025974  0.014996  0.000000      6.000000
  0.038961  0.022494  0.000000      6.000000
  0.051948  0.029992  0.000000      6.000000
  0.064935  0.037490  0.000000      6.000000
  0.012987  0.022494  0.000000      6.000000
  0.025974  0.029992  0.000000      6.000000
  0.038961  0.037490  0.000000      6.000000
  0.051948  0.044988  0.000000      6.000000
  0.064935  0.052486  0.000000      6.000000
 -0.064935 -0.022494  0.000000      6.000000
 -0.051948 -0.014996  0.000000      6.000000
 -0.038961 -0.007498  0.000000      6.000000
  0.025974  0.044988  0.000000      6.000000
  0.038961  0.052486  0.000000      6.000000
  0.051948  0.059984  0.000000      6.000000
  0.064935  0.067482  0.000000      6.000000
 -0.064935 -0.007498  0.000000      6.000000
  0.038961  0.067482  0.000000      6.000000
  0.051948  0.074981  0.000000      6.000000
 
 TETIRR: Found    114 inequivalent tetrahedra from      726


--------------------------------------------------------------------------------------------------------




 Dimension of arrays:
   k-points           NKPTS =     21   k-points in BZ     NKDIM =     21   number of bands    NBANDS=     76
   number of dos      NEDOS =    301   number of ions     NIONS =      8
   non local maximal  LDIM  =      6   non local SUM 2l+1 LMDIM =     18
   total plane-waves  NPLWV = 162000
   max r-space proj   IRMAX =      1   max aug-charges    IRDMAX=   5720
   dimension x,y,z NGX =    30 NGY =   30 NGZ =  180
   dimension x,y,z NGXF=    60 NGYF=   60 NGZF=  360
   support grid    NGXF=    60 NGYF=   60 NGZF=  360
   ions per type =               2   6
   NGX,Y,Z   is equivalent  to a cutoff of   7.12,  7.12,  7.48 a.u.
   NGXF,Y,Z  is equivalent  to a cutoff of  14.25, 14.25, 14.96 a.u.

 SYSTEM =  bulk-CrI3                               
 POSCAR =  monolayer CrI3 (R3 structure)           

 Startparameter for this run:
   NWRITE =      2    write-flag & timer
   PREC   = normal    normal or accurate (medium, high low for compatibility)
   ISTART =      0    job   : 0-new  1-cont  2-samecut
   ICHARG =      2    charge: 1-file 2-atom 10-const
   ISPIN  =      1    spin polarized calculation?
   LNONCOLLINEAR =      T non collinear calculations
   LSORBIT =      T    spin-orbit coupling
   INIWAV =      1    electr: 0-lowe 1-rand  2-diag
   LASPH  =      F    aspherical Exc in radial PAW
   METAGGA=      F    non-selfconsistent MetaGGA calc.

 Electronic Relaxation 1
   ENCUT  =  300.0 eV  22.05 Ry    4.70 a.u.   9.89  9.89 56.49*2*pi/ulx,y,z
   ENINI  =  300.0     initial cutoff
   ENAUG  =  402.1 eV  augmentation charge cutoff
   NELM   =     60;   NELMIN=  2; NELMDL= -5     # of ELM steps 
   EDIFF  = 0.1E-05   stopping-criterion for ELM
   LREAL  =      F    real-space projection
   NLSPLINE    = F    spline interpolate recip. space projectors
   LCOMPAT=      F    compatible to vasp.4.4
   GGA_COMPAT  = F    GGA compatible to vasp.4.4-vasp.4.6
   LMAXPAW     = -100 max onsite density
   LMAXMIX     =    2 max onsite mixed and CHGCAR
   VOSKOWN=      0    Vosko Wilk Nusair interpolation
   ROPT   =    0.00000   0.00000
 Ionic relaxation
   EDIFFG = -.1E-04   stopping-criterion for IOM
   NSW    =    100    number of steps for IOM
   NBLOCK =      1;   KBLOCK =    100    inner block; outer block 
   IBRION =      2    ionic relax: 0-MD 1-quasi-New 2-CG
   NFREE  =      1    steps in history (QN), initial steepest desc. (CG)
   ISIF   =      2    stress and relaxation
   IWAVPR =     11    prediction:  0-non 1-charg 2-wave 3-comb
   ISYM   =      2    0-nonsym 1-usesym 2-fastsym
   LCORR  =      T    Harris-Foulkes like correction to forces

   POTIM  = 0.0200    time-step for ionic-motion
   TEIN   =    0.0    initial temperature
   TEBEG  =    0.0;   TEEND  =   0.0 temperature during run
   SMASS  =  -3.00    Nose mass-parameter (am)
   estimated Nose-frequenzy (Omega)   =  0.10E-29 period in steps =****** mass=  -0.112E-26a.u.
   SCALEE = 1.0000    scale energy and forces
   NPACO  =    256;   APACO  = 16.0  distance and # of slots for P.C.
   PSTRESS=    0.0 pullay stress

  Mass of Ions in am
   POMASS =  52.00126.90
  Ionic Valenz
   ZVAL   =   6.00  7.00
  Atomic Wigner-Seitz radii
   RWIGS  =  -1.00 -1.00
  virtual crystal weights 
   VCA    =   1.00  1.00
   NELECT =      54.0000    total number of electrons
   NUPDOWN=      -1.0000    fix difference up-down

 DOS related values:
   EMIN   =  10.00;   EMAX   =-10.00  energy-range for DOS
   EFERMI =   0.00
   ISMEAR =    -5;   SIGMA  =   0.05  broadening in eV -4-tet -1-fermi 0-gaus

 Electronic relaxation 2 (details)
   IALGO  =     38    algorithm
   LDIAG  =      T    sub-space diagonalisation (order eigenvalues)
   LSUBROT=      F    optimize rotation matrix (better conditioning)
   TURBO    =      0    0=normal 1=particle mesh
   IRESTART =      0    0=no restart 2=restart with 2 vectors
   NREBOOT  =      0    no. of reboots
   NMIN     =      0    reboot dimension
   EREF     =   0.00    reference energy to select bands
   IMIX   =      4    mixing-type and parameters
     AMIX     =   0.40;   BMIX     =  1.00
     AMIX_MAG =   1.60;   BMIX_MAG =  1.00
     AMIN     =   0.10
     WC   =   100.;   INIMIX=   1;  MIXPRE=   1;  MAXMIX=  40

 Intra band minimization:
   WEIMIN = 0.0010     energy-eigenvalue tresh-hold
   EBREAK =  0.33E-08  absolut break condition
   DEPER  =   0.30     relativ break condition  

   TIME   =   0.40     timestep for ELM

  volume/ion in A,a.u.               =     212.18      1431.84
  Fermi-wavevector in a.u.,A,eV,Ry     =   0.518733  0.980263  3.661109  0.269084
  Thomas-Fermi vector in A             =   1.535769
 
 Write flags
   LWAVE        =      T    write WAVECAR
   LDOWNSAMPLE  =      F    k-point downsampling of WAVECAR
   LCHARG       =      T    write CHGCAR
   LVTOT        =      F    write LOCPOT, total local potential
   LVHAR        =      F    write LOCPOT, Hartree potential only
   LELF         =      F    write electronic localiz. function (ELF)
   LORBIT       =     11    0 simple, 1 ext, 2 COOP (PROOUT), +10 PAW based schemes


 Dipole corrections
   LMONO  =      F    monopole corrections only (constant potential shift)
   LDIPOL =      F    correct potential (dipole corrections)
   IDIPOL =      0    1-x, 2-y, 3-z, 4-all directions 
   EPSILON=  1.0000000 bulk dielectric constant

 Exchange correlation treatment:
   GGA     =    PE    GGA type
   LEXCH   =     8    internal setting for exchange type
   VOSKOWN=      0    Vosko Wilk Nusair interpolation
   LHFCALC =     F    Hartree Fock is set to
   LHFONE  =     F    Hartree Fock one center treatment
   AEXX    =    0.0000 exact exchange contribution

 Linear response parameters
   LEPSILON=     F    determine dielectric tensor
   LRPA    =     F    only Hartree local field effects (RPA)
   LNABLA  =     F    use nabla operator in PAW spheres
   LVEL    =     F    velocity operator in full k-point grid
   LINTERFAST=   F  fast interpolation
   KINTER  =     0    interpolate to denser k-point grid
   CSHIFT  =0.1000    complex shift for real part using Kramers Kronig
   OMEGAMAX=  -1.0    maximum frequency
   DEG_THRESHOLD= 0.2000000E-02 threshold for treating states as degnerate
   RTIME   =   -0.100 relaxation time in fs
  (WPLASMAI=    0.000 imaginary part of plasma frequency in eV, 0.658/RTIME)
   DFIELD  = 0.0000000 0.0000000 0.0000000 field for delta impulse in time
 
 Orbital magnetization related:
   ORBITALMAG=     F  switch on orbital magnetization
   LCHIMAG   =     F  perturbation theory with respect to B field
   DQ        =  0.001000  dq finite difference perturbation B field
   LLRAUG    =     F  two centre corrections for induced B field



--------------------------------------------------------------------------------------------------------


 conjugate gradient relaxation of ions
 charge density and potential will be updated during run
 non collinear spin polarized calculation
 Variant of blocked Davidson
 Davidson routine will perform the subspace rotation
 perform sub-space diagonalisation
    after iterative eigenvector-optimisation
 modified Broyden-mixing scheme, WC =      100.0
 initial mixing is a Kerker type mixing with AMIX =  0.4000 and BMIX =      1.0000
 Hartree-type preconditioning will be used
 using additional bands           49
 reciprocal scheme for non local part
 use partial core corrections
 calculate Harris-corrections to forces 
   (improved forces if not selfconsistent)
 use gradient corrections 
 use of overlap-Matrix (Vanderbilt PP)
 Fermi weights with tetrahedron method with Bloechl corrections


--------------------------------------------------------------------------------------------------------


  energy-cutoff  :      300.00
  volume of cell :     1697.41
      direct lattice vectors                 reciprocal lattice vectors
     7.000000000  0.000000000  0.000000000     0.142857143  0.082478610  0.000000000
    -3.500000000  6.062177826  0.000000000     0.000000000  0.164957220  0.000000000
     0.000000000  0.000000000 40.000000000     0.000000000  0.000000000  0.025000000

  length of vectors
     7.000000000  7.000000000 40.000000000     0.164957220  0.164957220  0.025000000


 
 k-points in units of 2pi/SCALE and weight: K-Points   ! First line comment         
   0.00000000  0.00000000  0.00000000       0.008
   0.01298701  0.00749806  0.00000000       0.050
   0.02597403  0.01499611  0.00000000       0.050
   0.03896104  0.02249417  0.00000000       0.050
   0.05194805  0.02999222  0.00000000       0.050
   0.06493506  0.03749028  0.00000000       0.050
   0.01298701  0.02249417  0.00000000       0.050
   0.02597403  0.02999222  0.00000000       0.050
   0.03896104  0.03749028  0.00000000       0.050
   0.05194805  0.04498833  0.00000000       0.050
   0.06493506  0.05248639  0.00000000       0.050
  -0.06493506 -0.02249417  0.00000000       0.050
  -0.05194805 -0.01499611  0.00000000       0.050
  -0.03896104 -0.00749806  0.00000000       0.050
   0.02597403  0.04498833  0.00000000       0.050
   0.03896104  0.05248639  0.00000000       0.050
   0.05194805  0.05998444  0.00000000       0.050
   0.06493506  0.06748250  0.00000000       0.050
  -0.06493506 -0.00749806  0.00000000       0.050
   0.03896104  0.06748250  0.00000000       0.050
   0.05194805  0.07498055  0.00000000       0.050
 
 k-points in reciprocal lattice and weights: K-Points   ! First line comment         
   0.00000000  0.00000000  0.00000000       0.008
   0.09090909  0.00000000  0.00000000       0.050
   0.18181818  0.00000000  0.00000000       0.050
   0.27272727  0.00000000  0.00000000       0.050
   0.36363636  0.00000000  0.00000000       0.050
   0.45454545  0.00000000  0.00000000       0.050
   0.09090909  0.09090909  0.00000000       0.050
   0.18181818  0.09090909  0.00000000       0.050
   0.27272727  0.09090909  0.00000000       0.050
   0.36363636  0.09090909  0.00000000       0.050
   0.45454545  0.09090909  0.00000000       0.050
  -0.45454545  0.09090909  0.00000000       0.050
  -0.36363636  0.09090909  0.00000000       0.050
  -0.27272727  0.09090909  0.00000000       0.050
   0.18181818  0.18181818  0.00000000       0.050
   0.27272727  0.18181818  0.00000000       0.050
   0.36363636  0.18181818  0.00000000       0.050
   0.45454545  0.18181818  0.00000000       0.050
  -0.45454545  0.18181818  0.00000000       0.050
   0.27272727  0.27272727  0.00000000       0.050
   0.36363636  0.27272727  0.00000000       0.050
 
 position of ions in fractional coordinates (direct lattice) 
   0.00000000  0.00000000  0.50000000
   0.33333333  0.66666667  0.50000000
   0.33333333  0.00000000  0.46211139
   0.00000000  0.33333333  0.46211139
   0.33333333  0.33333333  0.53788861
   0.66666667  0.00000000  0.53788861
   0.00000000  0.66666667  0.53788861
   0.66666667  0.66666667  0.46211139
 
 position of ions in cartesian coordinates  (Angst):
   0.00000000  0.00000000 20.00000000
   0.00000000  4.04145188 20.00000000
   2.33333333  0.00000000 18.48445554
  -1.16666667  2.02072594 18.48445554
   1.16666667  2.02072594 21.51554446
   4.66666667  0.00000000 21.51554446
  -2.33333333  4.04145188 21.51554446
   2.33333333  4.04145188 18.48445554
 
 Euler angles ALPHA=     0.0000000  BETA=     0.0000000

 transformation matrix from SAXIS to cartesian coordinates
 ---------------------------------------------------------
     1.0000000 m_x     0.0000000 m_y     0.0000000 m_z
     0.0000000 m_x     1.0000000 m_y     0.0000000 m_z
     0.0000000 m_x     0.0000000 m_y     1.0000000 m_z

 transformation matrix from cartesian coordinates to SAXIS
 ---------------------------------------------------------
     1.0000000 m_x     0.0000000 m_y     0.0000000 m_z
     0.0000000 m_x     1.0000000 m_y     0.0000000 m_z
     0.0000000 m_x     0.0000000 m_y     1.0000000 m_z




--------------------------------------------------------------------------------------------------------


 k-point  1 :   0.0000 0.0000 0.0000  plane waves:   39850
 k-point  2 :   0.0909 0.0000 0.0000  plane waves:   39894
 k-point  3 :   0.1818 0.0000 0.0000  plane waves:   39970
 k-point  4 :   0.2727 0.0000 0.0000  plane waves:   40114
 k-point  5 :   0.3636 0.0000 0.0000  plane waves:   40074
 k-point  6 :   0.4545 0.0000 0.0000  plane waves:   40092
 k-point  7 :   0.0909 0.0909 0.0000  plane waves:   39924
 k-point  8 :   0.1818 0.0909 0.0000  plane waves:   40036
 k-point  9 :   0.2727 0.0909 0.0000  plane waves:   40064
 k-point 10 :   0.3636 0.0909 0.0000  plane waves:   40092
 k-point 11 :   0.4545 0.0909 0.0000  plane waves:   40116
 k-point 12 :  -0.4545 0.0909 0.0000  plane waves:   40092
 k-point 13 :  -0.3636 0.0909 0.0000  plane waves:   40064
 k-point 14 :  -0.2727 0.0909 0.0000  plane waves:   40036
 k-point 15 :   0.1818 0.1818 0.0000  plane waves:   40040
 k-point 16 :   0.2727 0.1818 0.0000  plane waves:   40074
 k-point 17 :   0.3636 0.1818 0.0000  plane waves:   40104
 k-point 18 :   0.4545 0.1818 0.0000  plane waves:   40104
 k-point 19 :  -0.4545 0.1818 0.0000  plane waves:   40074
 k-point 20 :   0.2727 0.2727 0.0000  plane waves:   40060
 k-point 21 :   0.3636 0.2727 0.0000  plane waves:   40088

 maximum and minimum number of plane-waves per node :     10104     9864

 maximum number of plane-waves:     40116
 maximum index in each direction: 
   IXMAX=   10   IYMAX=    9   IZMAX=   56
   IXMIN=  -10   IYMIN=  -10   IZMIN=  -56


 parallel 3D FFT for wavefunctions:
    minimum data exchange during FFTs selected (reduces bandwidth)
 parallel 3D FFT for charge:
    minimum data exchange during FFTs selected (reduces bandwidth)


 total amount of memory used by VASP MPI-rank0   250130. kBytes
=======================================================================

   base      :      30000. kBytes
   nonl-proj :      31028. kBytes
   fftplans  :      12867. kBytes
   grid      :      47001. kBytes
   one-center:        124. kBytes
   wavefun   :     129110. kBytes
 
     INWAV:  cpu time    0.0010: real time    0.0001
 Broyden mixing: mesh for mixing (old mesh)
   NGX = 19   NGY = 19   NGZ =113
  (NGX  = 60   NGY  = 60   NGZ  =360)
  gives a total of  40793 points

 initial charge density was supplied:
 charge density of overlapping atoms calculated
 number of electron      54.0000000 magnetization       0.0000000      0.0000000     12.0000000
 keeping initial charge density in first step


--------------------------------------------------------------------------------------------------------


 Maximum index for augmentation-charges          834 (set IRDMAX)


--------------------------------------------------------------------------------------------------------


 First call to EWALD:  gamma=   0.149
 Maximum number of real-space cells 5x 5x 1
 Maximum number of reciprocal cells 2x 2x 8

    FEWALD:  cpu time    0.0530: real time    0.0537


--------------------------------------- Iteration      1(   1)  ---------------------------------------


    POTLOK:  cpu time    0.4689: real time    0.4931
    SETDIJ:  cpu time    0.0430: real time    0.0418
     EDDAV:  cpu time    5.1022: real time    5.1198
 BZINTS: Fermi energy:  4.452077; 54.000000 electrons
         Band energy: -59.526558;  BLOECHL correction: -0.026771
       DOS:  cpu time    0.0180: real time    0.0182
    --------------------------------------------
      LOOP:  cpu time    5.6321: real time    5.6729

 eigenvalue-minimisations  :  3504
 total energy-change (2. order) : 0.3664457E+03  (-0.1058399E+04)
 number of electron      54.0000000 magnetization       0.0000000      0.0000000     12.0000000
 augmentation part       54.0000000 magnetization       0.0000000      0.0000000     12.0000000

 Free energy of the ion-electron system (eV)
  ---------------------------------------------------
  alpha Z        PSCENC =         8.01204487
  Ewald energy   TEWEN  =     13779.28463645
  -Hartree energ DENC   =    -15892.05205283
  -exchange      EXHF   =         0.00000000
  -V(xc)+E(xc)   XCENC  =      -114.92848018
  PAW double counting   =      2181.82218628    -1985.09704784
  entropy T*S    EENTRO =         0.00000000
  eigenvalues    EBANDS =       -59.52655847
  atomic energy  EATOM  =      2448.93098101
  Solvation  Ediel_sol  =         0.00000000
  ---------------------------------------------------
  free energy    TOTEN  =       366.44570930 eV

  energy without entropy =      366.44570930  energy(sigma->0) =      366.44570930


--------------------------------------------------------------------------------------------------------




--------------------------------------- Iteration      1(   2)  ---------------------------------------


     EDDAV:  cpu time    6.8400: real time    6.9602
 BZINTS: Fermi energy: -0.837405; 54.000000 electrons
         Band energy:-383.428045;  BLOECHL correction: -0.007893
       DOS:  cpu time    0.0170: real time    0.0173
    --------------------------------------------
      LOOP:  cpu time    6.8570: real time    6.9774

 eigenvalue-minimisations  :  5032
 total energy-change (2. order) :-0.3239015E+03  (-0.3077761E+03)
 number of electron      54.0000000 magnetization       0.0000000      0.0000000     12.0000000
 augmentation part       54.0000000 magnetization       0.0000000      0.0000000     12.0000000

 Free energy of the ion-electron system (eV)
  ---------------------------------------------------
  alpha Z        PSCENC =         8.01204487
  Ewald energy   TEWEN  =     13779.28463645
  -Hartree energ DENC   =    -15892.05205283
  -exchange      EXHF   =         0.00000000
  -V(xc)+E(xc)   XCENC  =      -114.92848018
  PAW double counting   =      2181.82218628    -1985.09704784
  entropy T*S    EENTRO =         0.00000000
  eigenvalues    EBANDS =      -383.42804508
  atomic energy  EATOM  =      2448.93098101
  Solvation  Ediel_sol  =         0.00000000
  ---------------------------------------------------
  free energy    TOTEN  =        42.54422268 eV

  energy without entropy =       42.54422268  energy(sigma->0) =       42.54422268


--------------------------------------------------------------------------------------------------------




--------------------------------------- Iteration      1(   3)  ---------------------------------------


     EDDAV:  cpu time    5.9871: real time    5.9964
 BZINTS: Fermi energy: -2.944515; 54.000000 electrons
         Band energy:-455.089390;  BLOECHL correction:  0.000000
       DOS:  cpu time    0.0060: real time    0.0053
    --------------------------------------------
      LOOP:  cpu time    5.9931: real time    6.0017

 eigenvalue-minimisations  :  4192
 total energy-change (2. order) :-0.7166135E+02  (-0.7071142E+02)
 number of electron      54.0000000 magnetization       0.0000000      0.0000000     12.0000000
 augmentation part       54.0000000 magnetization       0.0000000      0.0000000     12.0000000

 Free energy of the ion-electron system (eV)
  ---------------------------------------------------
  alpha Z        PSCENC =         8.01204487
  Ewald energy   TEWEN  =     13779.28463645
  -Hartree energ DENC   =    -15892.05205283
  -exchange      EXHF   =         0.00000000
  -V(xc)+E(xc)   XCENC  =      -114.92848018
  PAW double counting   =      2181.82218628    -1985.09704784
  entropy T*S    EENTRO =         0.00000000
  eigenvalues    EBANDS =      -455.08939030
  atomic energy  EATOM  =      2448.93098101
  Solvation  Ediel_sol  =         0.00000000
  ---------------------------------------------------
  free energy    TOTEN  =       -29.11712253 eV

  energy without entropy =      -29.11712253  energy(sigma->0) =      -29.11712253


--------------------------------------------------------------------------------------------------------




--------------------------------------- Iteration      1(   4)  ---------------------------------------


     EDDAV:  cpu time    6.8020: real time    6.8161
 BZINTS: Fermi energy: -3.084965; 54.000000 electrons
         Band energy:-460.272388;  BLOECHL correction:  0.000000
       DOS:  cpu time    0.0050: real time    0.0047
    --------------------------------------------
      LOOP:  cpu time    6.8070: real time    6.8209

 eigenvalue-minimisations  :  5000
 total energy-change (2. order) :-0.5182998E+01  (-0.5162822E+01)
 number of electron      54.0000000 magnetization       0.0000000      0.0000000     12.0000000
 augmentation part       54.0000000 magnetization       0.0000000      0.0000000     12.0000000

 Free energy of the ion-electron system (eV)
  ---------------------------------------------------
  alpha Z        PSCENC =         8.01204487
  Ewald energy   TEWEN  =     13779.28463645
  -Hartree energ DENC   =    -15892.05205283
  -exchange      EXHF   =         0.00000000
  -V(xc)+E(xc)   XCENC  =      -114.92848018
  PAW double counting   =      2181.82218628    -1985.09704784
  entropy T*S    EENTRO =         0.00000000
  eigenvalues    EBANDS =      -460.27238783
  atomic energy  EATOM  =      2448.93098101
  Solvation  Ediel_sol  =         0.00000000
  ---------------------------------------------------
  free energy    TOTEN  =       -34.30012006 eV

  energy without entropy =      -34.30012006  energy(sigma->0) =      -34.30012006


--------------------------------------------------------------------------------------------------------




--------------------------------------- Iteration      1(   5)  ---------------------------------------


     EDDAV:  cpu time    7.1809: real time    7.1973
 BZINTS: Fermi energy: -3.087675; 54.000000 electrons
         Band energy:-460.348589;  BLOECHL correction:  0.000000
       DOS:  cpu time    0.0050: real time    0.0053
 


 total charge     
 
# of ion       s       p       d       tot
------------------------------------------
    1        0.283   0.333   3.285   3.901
    2        0.283   0.333   3.299   3.914
    3        1.524   2.952   0.025   4.501
    4        1.524   2.952   0.025   4.501
    5        1.524   2.952   0.025   4.501
    6        1.525   2.952   0.025   4.502
    7        1.524   2.952   0.025   4.501
    8        1.525   2.952   0.025   4.502
--------------------------------------------------
tot          9.710  18.377   6.734  34.821
 


 magnetization (x)
 
# of ion       s       p       d       tot
------------------------------------------
    1        0.000   0.000  -0.000  -0.000
    2       -0.000   0.000   0.000   0.000
    3        0.000  -0.000  -0.000  -0.000
    4        0.000  -0.000  -0.000  -0.000
    5       -0.000   0.000   0.000   0.000
    6       -0.000   0.000   0.000   0.000
    7       -0.000   0.000   0.000   0.000
    8        0.000  -0.000  -0.000  -0.000
--------------------------------------------------
tot          0.000  -0.001   0.000  -0.000
 


 magnetization (y)
 
# of ion       s       p       d       tot
------------------------------------------
    1        0.000  -0.000  -0.001  -0.001
    2       -0.000   0.000   0.000   0.000
    3       -0.000  -0.000   0.000  -0.000
    4       -0.000   0.000   0.000   0.000
    5       -0.000  -0.000  -0.000  -0.000
    6        0.000   0.000  -0.000   0.000
    7        0.000   0.000  -0.000   0.000
    8       -0.000   0.001  -0.000   0.000
--------------------------------------------------
tot         -0.000   0.001  -0.000   0.001
 


 magnetization (z)
 
# of ion       s       p       d       tot
------------------------------------------
    1        0.045   0.044   2.715   2.804
    2        0.045   0.044   2.729   2.818
    3        0.004  -0.044   0.011  -0.029
    4        0.004  -0.044   0.011  -0.029
    5        0.004  -0.044   0.011  -0.029
    6        0.004  -0.042   0.011  -0.027
    7        0.004  -0.044   0.011  -0.029
    8        0.004  -0.042   0.011  -0.027
--------------------------------------------------
tot          0.115  -0.174   5.512   5.453
 
    CHARGE:  cpu time    0.3869: real time    0.3872
    MIXING:  cpu time    0.0520: real time    0.0533
    --------------------------------------------
      LOOP:  cpu time    7.6248: real time    7.6431

 eigenvalue-minimisations  :  5000
 total energy-change (2. order) :-0.7620086E-01  (-0.7608203E-01)
 number of electron      54.0000165 magnetization      -0.0000000     -0.0000000     11.7693995
 augmentation part       -6.4776761 magnetization      -0.0000000     -0.0000000      9.3525532

 Broyden mixing:
  rms(total) = 0.18097E+01    rms(broyden)= 0.18073E+01
  rms(prec ) = 0.18371E+01
  weight for this iteration     100.00

 Free energy of the ion-electron system (eV)
  ---------------------------------------------------
  alpha Z        PSCENC =         8.01204487
  Ewald energy   TEWEN  =     13779.28463645
  -Hartree energ DENC   =    -15892.05205283
  -exchange      EXHF   =         0.00000000
  -V(xc)+E(xc)   XCENC  =      -114.92848018
  PAW double counting   =      2181.82218628    -1985.09704784
  entropy T*S    EENTRO =         0.00000000
  eigenvalues    EBANDS =      -460.34858868
  atomic energy  EATOM  =      2448.93098101
  Solvation  Ediel_sol  =         0.00000000
  ---------------------------------------------------
  free energy    TOTEN  =       -34.37632092 eV

  energy without entropy =      -34.37632092  energy(sigma->0) =      -34.37632092


--------------------------------------------------------------------------------------------------------




--------------------------------------- Iteration      1(   6)  ---------------------------------------


    POTLOK:  cpu time    0.4929: real time    0.4941
    SETDIJ:  cpu time    0.0520: real time    0.0511
     EDDAV:  cpu time    6.4890: real time    6.4989
 BZINTS: Fermi energy: -4.758164; 54.000000 electrons
         Band energy:-496.548582;  BLOECHL correction: -0.002482
       DOS:  cpu time    0.0240: real time    0.0230
    CHARGE:  cpu time    0.3689: real time    0.3707
    MIXING:  cpu time    0.0560: real time    0.0546
    --------------------------------------------
      LOOP:  cpu time    7.4829: real time    7.4925

 eigenvalue-minimisations  :  4608
 total energy-change (2. order) : 0.1135150E+01  (-0.3270944E+01)
 number of electron      54.0000269 magnetization      -0.0000000      0.0000000     11.7043039
 augmentation part       -0.4369170 magnetization      -0.0000000      0.0000000      8.7677330

 Broyden mixing:
  rms(total) = 0.31520E+01    rms(broyden)= 0.31514E+01
  rms(prec ) = 0.32413E+01
  weight for this iteration     100.00

 eigenvalues of (default mixing * dielectric matrix)
  average eigenvalue GAMMA=   0.2996
  0.2996

 Free energy of the ion-electron system (eV)
  ---------------------------------------------------
  alpha Z        PSCENC =         8.01204487
  Ewald energy   TEWEN  =     13779.28463645
  -Hartree energ DENC   =    -15861.30830952
  -exchange      EXHF   =         0.00000000
  -V(xc)+E(xc)   XCENC  =      -112.96693557
  PAW double counting   =      2591.92227428    -2390.56727975
  entropy T*S    EENTRO =         0.00000000
  eigenvalues    EBANDS =      -496.54858220
  atomic energy  EATOM  =      2448.93098101
  Solvation  Ediel_sol  =         0.00000000
  ---------------------------------------------------
  free energy    TOTEN  =       -33.24117042 eV

  energy without entropy =      -33.24117042  energy(sigma->0) =      -33.24117042


--------------------------------------------------------------------------------------------------------




--------------------------------------- Iteration      1(   7)  ---------------------------------------


    POTLOK:  cpu time    0.4809: real time    0.4818
    SETDIJ:  cpu time    0.0620: real time    0.0627
     EDDAV:  cpu time    6.1991: real time    6.2082
 BZINTS: Fermi energy: -4.164952; 54.000000 electrons
         Band energy:-461.027650;  BLOECHL correction:  0.000000
       DOS:  cpu time    0.0060: real time    0.0055
    CHARGE:  cpu time    0.3689: real time    0.3700
    MIXING:  cpu time    0.0550: real time    0.0543
    --------------------------------------------
      LOOP:  cpu time    7.1719: real time    7.1825

 eigenvalue-minimisations  :  4400
 total energy-change (2. order) : 0.5892457E+01  (-0.2944701E+01)
 number of electron      54.0000183 magnetization      -0.0000000      0.0000000     11.5394156
 augmentation part       -5.2376878 magnetization      -0.0000000      0.0000000      9.5620881

 Broyden mixing:
  rms(total) = 0.12514E+01    rms(broyden)= 0.12499E+01
  rms(prec ) = 0.12555E+01
  weight for this iteration     100.00

 eigenvalues of (default mixing * dielectric matrix)
  average eigenvalue GAMMA=   0.4550
  0.6636  0.2465

 Free energy of the ion-electron system (eV)
  ---------------------------------------------------
  alpha Z        PSCENC =         8.01204487
  Ewald energy   TEWEN  =     13779.28463645
  -Hartree energ DENC   =    -15886.54632116
  -exchange      EXHF   =         0.00000000
  -V(xc)+E(xc)   XCENC  =      -113.45182232
  PAW double counting   =      2711.77140949    -2514.32199133
  entropy T*S    EENTRO =         0.00000000
  eigenvalues    EBANDS =      -461.02765046
  atomic energy  EATOM  =      2448.93098101
  Solvation  Ediel_sol  =         0.00000000
  ---------------------------------------------------
  free energy    TOTEN  =       -27.34871344 eV

  energy without entropy =      -27.34871344  energy(sigma->0) =      -27.34871344


--------------------------------------------------------------------------------------------------------




--------------------------------------- Iteration      1(   8)  ---------------------------------------


    POTLOK:  cpu time    0.4839: real time    0.4852
    SETDIJ:  cpu time    0.1020: real time    0.1016
     EDDAV:  cpu time    5.6141: real time    5.6247
 BZINTS: Fermi energy: -4.177742; 54.000000 electrons
         Band energy:-461.619346;  BLOECHL correction:  0.000000
       DOS:  cpu time    0.0060: real time    0.0054
    CHARGE:  cpu time    0.3679: real time    0.3694
    MIXING:  cpu time    0.0530: real time    0.0529
    --------------------------------------------
      LOOP:  cpu time    6.6270: real time    6.6394

 eigenvalue-minimisations  :  3776
 total energy-change (2. order) : 0.1346002E+01  (-0.5497388E+00)
 number of electron      54.0000185 magnetization      -0.0000000     -0.0000000     11.2588584
 augmentation part       -5.2598116 magnetization      -0.0000000      0.0000000      9.3384720

 Broyden mixing:
  rms(total) = 0.58441E+00    rms(broyden)= 0.58439E+00
  rms(prec ) = 0.59143E+00
  weight for this iteration     100.00

 eigenvalues of (default mixing * dielectric matrix)
  average eigenvalue GAMMA=   0.6392
  0.2549  0.9980  0.6647

 Free energy of the ion-electron system (eV)
  ---------------------------------------------------
  alpha Z        PSCENC =         8.01204487
  Ewald energy   TEWEN  =     13779.28463645
  -Hartree energ DENC   =    -15886.40006079
  -exchange      EXHF   =         0.00000000
  -V(xc)+E(xc)   XCENC  =      -111.34113561
  PAW double counting   =      3112.36448993    -2915.23432129
  entropy T*S    EENTRO =         0.00000000
  eigenvalues    EBANDS =      -461.61934647
  atomic energy  EATOM  =      2448.93098101
  Solvation  Ediel_sol  =         0.00000000
  ---------------------------------------------------
  free energy    TOTEN  =       -26.00271190 eV

  energy without entropy =      -26.00271190  energy(sigma->0) =      -26.00271190


--------------------------------------------------------------------------------------------------------




--------------------------------------- Iteration      1(   9)  ---------------------------------------


    POTLOK:  cpu time    0.4859: real time    0.4937
    SETDIJ:  cpu time    0.0520: real time    0.0517
     EDDAV:  cpu time    6.3740: real time    6.3841
 BZINTS: Fermi energy: -4.048071; 54.000000 electrons
         Band energy:-457.842311;  BLOECHL correction:  0.000000
       DOS:  cpu time    0.0060: real time    0.0056
    CHARGE:  cpu time    0.3689: real time    0.3696
    MIXING:  cpu time    0.0550: real time    0.0550
    --------------------------------------------
      LOOP:  cpu time    7.3419: real time    7.3596

 eigenvalue-minimisations  :  4768
 total energy-change (2. order) : 0.8555199E+00  (-0.9261761E-01)
 number of electron      54.0000194 magnetization      -0.0000000      0.0000000     11.0617076
 augmentation part       -4.6661385 magnetization      -0.0000000      0.0000000      9.3920233

 Broyden mixing:
  rms(total) = 0.33442E+00    rms(broyden)= 0.33420E+00
  rms(prec ) = 0.33621E+00
  weight for this iteration     100.00

 eigenvalues of (default mixing * dielectric matrix)
  average eigenvalue GAMMA=   0.8046
  1.6100  0.8637  0.2609  0.4837

 Free energy of the ion-electron system (eV)
  ---------------------------------------------------
  alpha Z        PSCENC =         8.01204487
  Ewald energy   TEWEN  =     13779.28463645
  -Hartree energ DENC   =    -15890.30729109
  -exchange      EXHF   =         0.00000000
  -V(xc)+E(xc)   XCENC  =      -110.23025829
  PAW double counting   =      3377.59612100    -3180.59111534
  entropy T*S    EENTRO =         0.00000000
  eigenvalues    EBANDS =      -457.84231064
  atomic energy  EATOM  =      2448.93098101
  Solvation  Ediel_sol  =         0.00000000
  ---------------------------------------------------
  free energy    TOTEN  =       -25.14719203 eV

  energy without entropy =      -25.14719203  energy(sigma->0) =      -25.14719203


--------------------------------------------------------------------------------------------------------




--------------------------------------- Iteration      1(  10)  ---------------------------------------


    POTLOK:  cpu time    0.4859: real time    0.4862
    SETDIJ:  cpu time    0.0520: real time    0.0519
     EDDAV:  cpu time    5.2622: real time    5.2706
 BZINTS: Fermi energy: -3.960114; 54.000000 electrons
         Band energy:-453.039180;  BLOECHL correction:  0.000000
       DOS:  cpu time    0.0060: real time    0.0059
 


 total charge     
 
# of ion       s       p       d       tot
------------------------------------------
    1        0.309   0.375   4.213   4.898
    2        0.309   0.375   4.225   4.909
    3        1.515   2.764   0.020   4.299
    4        1.515   2.765   0.020   4.300
    5        1.515   2.763   0.020   4.297
    6        1.516   2.759   0.019   4.294
    7        1.515   2.764   0.020   4.299
    8        1.516   2.758   0.019   4.294
--------------------------------------------------
tot          9.710  17.325   8.556  35.590
 


 magnetization (x)
 
# of ion       s       p       d       tot
------------------------------------------
    1        0.000  -0.000  -0.002  -0.002
    2       -0.000  -0.000   0.000  -0.000
    3        0.000  -0.001  -0.000  -0.001
    4        0.000  -0.001  -0.000  -0.001
    5       -0.000  -0.001  -0.000  -0.001
    6       -0.000   0.000   0.000  -0.000
    7       -0.000   0.003   0.000   0.003
    8        0.000  -0.000  -0.000  -0.000
--------------------------------------------------
tot          0.000  -0.001  -0.002  -0.002
 


 magnetization (y)
 
# of ion       s       p       d       tot
------------------------------------------
    1        0.000   0.000  -0.002  -0.001
    2       -0.000   0.000   0.005   0.004
    3       -0.000   0.000   0.000   0.000
    4       -0.000  -0.000   0.000  -0.000
    5       -0.000  -0.000   0.000  -0.000
    6        0.000   0.000  -0.000   0.000
    7       -0.000   0.001  -0.000   0.001
    8        0.000   0.000  -0.000   0.000
--------------------------------------------------
tot         -0.000   0.002   0.003   0.005
 


 magnetization (z)
 
# of ion       s       p       d       tot
------------------------------------------
    1        0.037   0.037   3.023   3.096
    2        0.037   0.037   3.039   3.113
    3       -0.010  -0.133   0.004  -0.140
    4       -0.010  -0.131   0.004  -0.137
    5       -0.010  -0.135   0.004  -0.141
    6       -0.010  -0.130   0.004  -0.136
    7       -0.010  -0.133   0.004  -0.140
    8       -0.010  -0.132   0.004  -0.138
--------------------------------------------------
tot          0.012  -0.720   6.084   5.376
 
    CHARGE:  cpu time    0.3719: real time    0.3727
    MIXING:  cpu time    0.0570: real time    0.0574
    --------------------------------------------
      LOOP:  cpu time    6.2351: real time    6.2447

 eigenvalue-minimisations  :  3684
 total energy-change (2. order) :-0.9194768E+00  (-0.2296514E-01)
 number of electron      54.0000194 magnetization      -0.0000000      0.0000000     10.7747834
 augmentation part       -4.6305216 magnetization      -0.0000000      0.0000000      9.1741543

 Broyden mixing:
  rms(total) = 0.24071E+00    rms(broyden)= 0.24069E+00
  rms(prec ) = 0.24244E+00
  weight for this iteration     100.00

 eigenvalues of (default mixing * dielectric matrix)
  average eigenvalue GAMMA=   0.8841
  2.0121  0.2597  0.7927  0.7927  0.5635

 Free energy of the ion-electron system (eV)
  ---------------------------------------------------
  alpha Z        PSCENC =         8.01204487
  Ewald energy   TEWEN  =     13779.28463645
  -Hartree energ DENC   =    -15895.39351603
  -exchange      EXHF   =         0.00000000
  -V(xc)+E(xc)   XCENC  =      -110.41761192
  PAW double counting   =      3415.28872399    -3218.73274711
  entropy T*S    EENTRO =         0.00000000
  eigenvalues    EBANDS =      -453.03918011
  atomic energy  EATOM  =      2448.93098101
  Solvation  Ediel_sol  =         0.00000000
  ---------------------------------------------------
  free energy    TOTEN  =       -26.06666884 eV

  energy without entropy =      -26.06666884  energy(sigma->0) =      -26.06666884


--------------------------------------------------------------------------------------------------------




--------------------------------------- Iteration      1(  11)  ---------------------------------------


    POTLOK:  cpu time    0.4899: real time    0.4908
    SETDIJ:  cpu time    0.0440: real time    0.0443
     EDDAV:  cpu time    5.4032: real time    5.4102
 BZINTS: Fermi energy: -3.901323; 54.000000 electrons
         Band energy:-447.631642;  BLOECHL correction:  0.000000
       DOS:  cpu time    0.0050: real time    0.0054
    CHARGE:  cpu time    0.3689: real time    0.3694
    MIXING:  cpu time    0.0600: real time    0.0602
    --------------------------------------------
      LOOP:  cpu time    6.3710: real time    6.3803

 eigenvalue-minimisations  :  3732
 total energy-change (2. order) :-0.8151834E+00  (-0.2450649E-01)
 number of electron      54.0000192 magnetization      -0.0000000      0.0000000     10.4984826
 augmentation part       -4.7020422 magnetization      -0.0000000      0.0000000      8.9099135

 Broyden mixing:
  rms(total) = 0.18552E+00    rms(broyden)= 0.18551E+00
  rms(prec ) = 0.18581E+00
  weight for this iteration     100.00

 eigenvalues of (default mixing * dielectric matrix)
  average eigenvalue GAMMA=   0.9296
  2.2266  0.2596  0.9293  0.9293  0.5596  0.6730

 Free energy of the ion-electron system (eV)
  ---------------------------------------------------
  alpha Z        PSCENC =         8.01204487
  Ewald energy   TEWEN  =     13779.28463645
  -Hartree energ DENC   =    -15900.99720900
  -exchange      EXHF   =         0.00000000
  -V(xc)+E(xc)   XCENC  =      -110.63411612
  PAW double counting   =      3479.54035647    -3283.38690407
  entropy T*S    EENTRO =         0.00000000
  eigenvalues    EBANDS =      -447.63164184
  atomic energy  EATOM  =      2448.93098101
  Solvation  Ediel_sol  =         0.00000000
  ---------------------------------------------------
  free energy    TOTEN  =       -26.88185222 eV

  energy without entropy =      -26.88185222  energy(sigma->0) =      -26.88185222


--------------------------------------------------------------------------------------------------------




--------------------------------------- Iteration      1(  12)  ---------------------------------------


    POTLOK:  cpu time    0.4869: real time    0.4873
    SETDIJ:  cpu time    0.0550: real time    0.0549
     EDDAV:  cpu time    5.1632: real time    5.2045
 BZINTS: Fermi energy: -3.838707; 54.000000 electrons
         Band energy:-445.346027;  BLOECHL correction:  0.000000
       DOS:  cpu time    0.0060: real time    0.0059
    CHARGE:  cpu time    0.3699: real time    0.3709
    MIXING:  cpu time    0.0630: real time    0.0627
    --------------------------------------------
      LOOP:  cpu time    6.1441: real time    6.1862

 eigenvalue-minimisations  :  3432
 total energy-change (2. order) :-0.1084941E+01  (-0.2650780E-01)
 number of electron      54.0000192 magnetization      -0.0000000      0.0000000      9.9817992
 augmentation part       -4.6991149 magnetization      -0.0000000      0.0000000      8.3729437

 Broyden mixing:
  rms(total) = 0.15939E+00    rms(broyden)= 0.15939E+00
  rms(prec ) = 0.15960E+00
  weight for this iteration     100.00

 eigenvalues of (default mixing * dielectric matrix)
  average eigenvalue GAMMA=   1.0393
  2.7068  1.1904  1.1904  0.2596  0.5426  0.6925  0.6925

 Free energy of the ion-electron system (eV)
  ---------------------------------------------------
  alpha Z        PSCENC =         8.01204487
  Ewald energy   TEWEN  =     13779.28463645
  -Hartree energ DENC   =    -15903.50741345
  -exchange      EXHF   =         0.00000000
  -V(xc)+E(xc)   XCENC  =      -111.42285087
  PAW double counting   =      3507.81777030    -3311.73593399
  entropy T*S    EENTRO =         0.00000000
  eigenvalues    EBANDS =      -445.34602723
  atomic energy  EATOM  =      2448.93098101
  Solvation  Ediel_sol  =         0.00000000
  ---------------------------------------------------
  free energy    TOTEN  =       -27.96679291 eV

  energy without entropy =      -27.96679291  energy(sigma->0) =      -27.96679291


--------------------------------------------------------------------------------------------------------




--------------------------------------- Iteration      1(  13)  ---------------------------------------


    POTLOK:  cpu time    0.4859: real time    0.4868
    SETDIJ:  cpu time    0.0650: real time    0.0648
     EDDAV:  cpu time    5.1452: real time    5.1534
 BZINTS: Fermi energy: -3.839736; 54.000000 electrons
         Band energy:-442.416945;  BLOECHL correction:  0.000000
       DOS:  cpu time    0.0050: real time    0.0054
    CHARGE:  cpu time    0.3699: real time    0.3705
    MIXING:  cpu time    0.0660: real time    0.0654
    --------------------------------------------
      LOOP:  cpu time    6.1371: real time    6.1464

 eigenvalue-minimisations  :  3384
 total energy-change (2. order) :-0.1602170E+01  (-0.5811215E-01)
 number of electron      54.0000191 magnetization      -0.0000000      0.0000000      9.3723562
 augmentation part       -4.7451214 magnetization      -0.0000000      0.0000000      7.7307866

 Broyden mixing:
  rms(total) = 0.12660E+00    rms(broyden)= 0.12659E+00
  rms(prec ) = 0.12685E+00
  weight for this iteration     100.00

 eigenvalues of (default mixing * dielectric matrix)
  average eigenvalue GAMMA=   1.1962
  3.6524  1.9785  0.9373  0.9373  0.2596  0.6617  0.5715  0.5715

 Free energy of the ion-electron system (eV)
  ---------------------------------------------------
  alpha Z        PSCENC =         8.01204487
  Ewald energy   TEWEN  =     13779.28463645
  -Hartree energ DENC   =    -15906.78382272
  -exchange      EXHF   =         0.00000000
  -V(xc)+E(xc)   XCENC  =      -112.61859601
  PAW double counting   =      3508.40664877    -3312.38391035
  entropy T*S    EENTRO =         0.00000000
  eigenvalues    EBANDS =      -442.41694522
  atomic energy  EATOM  =      2448.93098101
  Solvation  Ediel_sol  =         0.00000000
  ---------------------------------------------------
  free energy    TOTEN  =       -29.56896319 eV

  energy without entropy =      -29.56896319  energy(sigma->0) =      -29.56896319


--------------------------------------------------------------------------------------------------------




--------------------------------------- Iteration      1(  14)  ---------------------------------------


    POTLOK:  cpu time    0.4809: real time    0.4864
    SETDIJ:  cpu time    0.0690: real time    0.0690
     EDDAV:  cpu time    5.2242: real time    5.2317
 BZINTS: Fermi energy: -3.759007; 54.000000 electrons
         Band energy:-441.376858;  BLOECHL correction:  0.000000
       DOS:  cpu time    0.0060: real time    0.0059
    CHARGE:  cpu time    0.3659: real time    0.3672
    MIXING:  cpu time    0.0610: real time    0.0599
    --------------------------------------------
      LOOP:  cpu time    6.2071: real time    6.2202

 eigenvalue-minimisations  :  3580
 total energy-change (2. order) :-0.1251011E+01  (-0.5205408E-01)
 number of electron      54.0000191 magnetization      -0.0000000      0.0000000      8.9398356
 augmentation part       -4.7714015 magnetization      -0.0000000      0.0000000      7.2803463

 Broyden mixing:
  rms(total) = 0.10472E+00    rms(broyden)= 0.10471E+00
  rms(prec ) = 0.10561E+00
  weight for this iteration     100.00

 eigenvalues of (default mixing * dielectric matrix)
  average eigenvalue GAMMA=   1.3446
  5.0533  2.2416  1.0621  1.0621  0.2596  0.6809  0.5389  0.6015  0.6015

 Free energy of the ion-electron system (eV)
  ---------------------------------------------------
  alpha Z        PSCENC =         8.01204487
  Ewald energy   TEWEN  =     13779.28463645
  -Hartree energ DENC   =    -15908.13129295
  -exchange      EXHF   =         0.00000000
  -V(xc)+E(xc)   XCENC  =      -113.60041756
  PAW double counting   =      3468.77591117    -3272.71497893
  entropy T*S    EENTRO =         0.00000000
  eigenvalues    EBANDS =      -441.37685823
  atomic energy  EATOM  =      2448.93098101
  Solvation  Ediel_sol  =         0.00000000
  ---------------------------------------------------
  free energy    TOTEN  =       -30.81997418 eV

  energy without entropy =      -30.81997418  energy(sigma->0) =      -30.81997418


--------------------------------------------------------------------------------------------------------




--------------------------------------- Iteration      1(  15)  ---------------------------------------


    POTLOK:  cpu time    0.4869: real time    0.4876
    SETDIJ:  cpu time    0.0280: real time    0.0281
     EDDAV:  cpu time    4.8753: real time    4.8834
 BZINTS: Fermi energy: -3.788488; 54.000000 electrons
         Band energy:-442.895662;  BLOECHL correction:  0.000000
       DOS:  cpu time    0.0060: real time    0.0054
 


 total charge     
 
# of ion       s       p       d       tot
------------------------------------------
    1        0.306   0.370   4.131   4.807
    2        0.305   0.370   4.141   4.817
    3        1.512   2.759   0.019   4.291
    4        1.512   2.761   0.019   4.293
    5        1.513   2.758   0.019   4.290
    6        1.514   2.755   0.019   4.288
    7        1.512   2.760   0.019   4.292
    8        1.514   2.754   0.019   4.287
--------------------------------------------------
tot          9.689  17.287   8.389  35.365
 


 magnetization (x)
 
# of ion       s       p       d       tot
------------------------------------------
    1        0.000  -0.000  -0.001  -0.001
    2       -0.000  -0.000   0.001   0.001
    3        0.000  -0.001  -0.000  -0.001
    4        0.000  -0.001  -0.000  -0.000
    5       -0.000   0.000   0.000  -0.000
    6       -0.000  -0.000   0.000  -0.000
    7       -0.000   0.001   0.000   0.001
    8        0.000  -0.000  -0.000  -0.000
--------------------------------------------------
tot          0.000  -0.001  -0.000  -0.001
 


 magnetization (y)
 
# of ion       s       p       d       tot
------------------------------------------
    1        0.000   0.000  -0.002  -0.002
    2       -0.000   0.000   0.003   0.002
    3       -0.000  -0.000   0.000   0.000
    4       -0.000   0.000   0.000   0.000
    5       -0.000   0.000   0.000   0.000
    6        0.000   0.000  -0.000   0.000
    7        0.000   0.001  -0.000   0.001
    8       -0.000   0.001   0.000   0.001
--------------------------------------------------
tot         -0.000   0.003   0.001   0.003
 


 magnetization (z)
 
# of ion       s       p       d       tot
------------------------------------------
    1        0.040   0.041   3.061   3.142
    2        0.040   0.041   3.075   3.156
    3       -0.004  -0.097   0.004  -0.096
    4       -0.004  -0.095   0.004  -0.094
    5       -0.004  -0.099   0.004  -0.098
    6       -0.004  -0.095   0.004  -0.094
    7       -0.004  -0.097   0.004  -0.096
    8       -0.004  -0.096   0.004  -0.095
--------------------------------------------------
tot          0.058  -0.496   6.162   5.724
 
    CHARGE:  cpu time    0.3699: real time    0.3707
    MIXING:  cpu time    0.0600: real time    0.0597
    --------------------------------------------
      LOOP:  cpu time    5.8261: real time    5.8349

 eigenvalue-minimisations  :  3448
 total energy-change (2. order) :-0.3660001E+00  (-0.1703819E-01)
 number of electron      54.0000191 magnetization      -0.0000000      0.0000000      8.5667765
 augmentation part       -4.7434240 magnetization      -0.0000000      0.0000000      6.9202147

 Broyden mixing:
  rms(total) = 0.82796E-01    rms(broyden)= 0.82793E-01
  rms(prec ) = 0.83375E-01
  weight for this iteration     100.00

 eigenvalues of (default mixing * dielectric matrix)
  average eigenvalue GAMMA=   1.5409
  7.1131  2.4129  1.2096  1.2096  0.2596  0.8509  0.6588  0.6588  0.5545  0.4813

 Free energy of the ion-electron system (eV)
  ---------------------------------------------------
  alpha Z        PSCENC =         8.01204487
  Ewald energy   TEWEN  =     13779.28463645
  -Hartree energ DENC   =    -15906.79793351
  -exchange      EXHF   =         0.00000000
  -V(xc)+E(xc)   XCENC  =      -113.84876550
  PAW double counting   =      3432.94354073    -3236.81481637
  entropy T*S    EENTRO =         0.00000000
  eigenvalues    EBANDS =      -442.89566200
  atomic energy  EATOM  =      2448.93098101
  Solvation  Ediel_sol  =         0.00000000
  ---------------------------------------------------
  free energy    TOTEN  =       -31.18597432 eV

  energy without entropy =      -31.18597432  energy(sigma->0) =      -31.18597432


--------------------------------------------------------------------------------------------------------




--------------------------------------- Iteration      1(  16)  ---------------------------------------


    POTLOK:  cpu time    0.4929: real time    0.4930
    SETDIJ:  cpu time    0.0260: real time    0.0263
     EDDAV:  cpu time    5.0322: real time    5.0411
 BZINTS: Fermi energy: -3.858790; 54.000000 electrons
         Band energy:-445.590845;  BLOECHL correction:  0.000000
       DOS:  cpu time    0.0050: real time    0.0055
    CHARGE:  cpu time    0.3679: real time    0.3689
    MIXING:  cpu time    0.0620: real time    0.0615
    --------------------------------------------
      LOOP:  cpu time    5.9861: real time    5.9963

 eigenvalue-minimisations  :  3620
 total energy-change (2. order) :-0.2506407E+00  (-0.7373329E-02)
 number of electron      54.0000192 magnetization       0.0000000      0.0000000      8.2161227
 augmentation part       -4.7124403 magnetization       0.0000000      0.0000000      6.5896206

 Broyden mixing:
  rms(total) = 0.67415E-01    rms(broyden)= 0.67407E-01
  rms(prec ) = 0.67728E-01
  weight for this iteration     100.00

 eigenvalues of (default mixing * dielectric matrix)
  average eigenvalue GAMMA=   1.5830
  7.9777  2.4765  1.3876  1.0719  1.0719  0.2596  0.8459  0.6521  0.6521  0.5481
  0.4696

 Free energy of the ion-electron system (eV)
  ---------------------------------------------------
  alpha Z        PSCENC =         8.01204487
  Ewald energy   TEWEN  =     13779.28463645
  -Hartree energ DENC   =    -15904.20075709
  -exchange      EXHF   =         0.00000000
  -V(xc)+E(xc)   XCENC  =      -114.04752633
  PAW double counting   =      3406.76579476    -3210.59094374
  entropy T*S    EENTRO =         0.00000000
  eigenvalues    EBANDS =      -445.59084500
  atomic energy  EATOM  =      2448.93098101
  Solvation  Ediel_sol  =         0.00000000
  ---------------------------------------------------
  free energy    TOTEN  =       -31.43661507 eV

  energy without entropy =      -31.43661507  energy(sigma->0) =      -31.43661507


--------------------------------------------------------------------------------------------------------




--------------------------------------- Iteration      1(  17)  ---------------------------------------


    POTLOK:  cpu time    0.4859: real time    0.4869
    SETDIJ:  cpu time    0.0350: real time    0.0340
     EDDAV:  cpu time    4.8993: real time    4.9075
 BZINTS: Fermi energy: -3.901281; 54.000000 electrons
         Band energy:-448.817565;  BLOECHL correction:  0.000000
       DOS:  cpu time    0.0050: real time    0.0055
    CHARGE:  cpu time    0.3679: real time    0.3680
    MIXING:  cpu time    0.0650: real time    0.0647
    --------------------------------------------
      LOOP:  cpu time    5.8581: real time    5.8666

 eigenvalue-minimisations  :  3456
 total energy-change (2. order) :-0.1024419E+00  (-0.4641233E-02)
 number of electron      54.0000192 magnetization       0.0000000      0.0000000      7.7656773
 augmentation part       -4.7090116 magnetization       0.0000000      0.0000000      6.1442895

 Broyden mixing:
  rms(total) = 0.61347E-01    rms(broyden)= 0.61346E-01
  rms(prec ) = 0.61533E-01
  weight for this iteration     100.00

 eigenvalues of (default mixing * dielectric matrix)
  average eigenvalue GAMMA=   1.7017
  9.0016  2.8132  2.2118  1.1764  1.1764  0.2596  0.8697  0.6820  0.6820  0.5554
  0.5468  0.4455

 Free energy of the ion-electron system (eV)
  ---------------------------------------------------
  alpha Z        PSCENC =         8.01204487
  Ewald energy   TEWEN  =     13779.28463645
  -Hartree energ DENC   =    -15900.93563540
  -exchange      EXHF   =         0.00000000
  -V(xc)+E(xc)   XCENC  =      -114.16579775
  PAW double counting   =      3408.31735657    -3212.16507782
  entropy T*S    EENTRO =         0.00000000
  eigenvalues    EBANDS =      -448.81756490
  atomic energy  EATOM  =      2448.93098101
  Solvation  Ediel_sol  =         0.00000000
  ---------------------------------------------------
  free energy    TOTEN  =       -31.53905698 eV

  energy without entropy =      -31.53905698  energy(sigma->0) =      -31.53905698


--------------------------------------------------------------------------------------------------------




--------------------------------------- Iteration      1(  18)  ---------------------------------------


    POTLOK:  cpu time    0.4839: real time    0.4852
    SETDIJ:  cpu time    0.0300: real time    0.0293
     EDDAV:  cpu time    4.7413: real time    4.7494
 BZINTS: Fermi energy: -3.980480; 54.000000 electrons
         Band energy:-452.855798;  BLOECHL correction:  0.000000
       DOS:  cpu time    0.0050: real time    0.0054
    CHARGE:  cpu time    0.3649: real time    0.3653
    MIXING:  cpu time    0.0680: real time    0.0673
    --------------------------------------------
      LOOP:  cpu time    5.6931: real time    5.7020

 eigenvalue-minimisations  :  3296
 total energy-change (2. order) :-0.2666178E-02  (-0.5483791E-02)
 number of electron      54.0000192 magnetization      -0.0000000      0.0000000      7.4434301
 augmentation part       -4.7151490 magnetization      -0.0000000      0.0000000      5.8172992

 Broyden mixing:
  rms(total) = 0.49095E-01    rms(broyden)= 0.49095E-01
  rms(prec ) = 0.49218E-01
  weight for this iteration     100.00

 eigenvalues of (default mixing * dielectric matrix)
  average eigenvalue GAMMA=   1.7668
  9.8693  3.4845  2.3948  1.2344  1.2344  0.2596  0.8397  0.8397  0.6782  0.6119
  0.5629  0.5290  0.4297

 Free energy of the ion-electron system (eV)
  ---------------------------------------------------
  alpha Z        PSCENC =         8.01204487
  Ewald energy   TEWEN  =     13779.28463645
  -Hartree energ DENC   =    -15896.78891658
  -exchange      EXHF   =         0.00000000
  -V(xc)+E(xc)   XCENC  =      -114.22604707
  PAW double counting   =      3425.94266134    -3229.84128558
  entropy T*S    EENTRO =         0.00000000
  eigenvalues    EBANDS =      -452.85579759
  atomic energy  EATOM  =      2448.93098101
  Solvation  Ediel_sol  =         0.00000000
  ---------------------------------------------------
  free energy    TOTEN  =       -31.54172315 eV

  energy without entropy =      -31.54172315  energy(sigma->0) =      -31.54172315


--------------------------------------------------------------------------------------------------------




--------------------------------------- Iteration      1(  19)  ---------------------------------------


    POTLOK:  cpu time    0.4879: real time    0.4957
    SETDIJ:  cpu time    0.0270: real time    0.0277
     EDDAV:  cpu time    5.2592: real time    5.2668
 BZINTS: Fermi energy: -4.037818; 54.000000 electrons
         Band energy:-455.430838;  BLOECHL correction:  0.000000
       DOS:  cpu time    0.0060: real time    0.0054
    CHARGE:  cpu time    0.3689: real time    0.3706
    MIXING:  cpu time    0.0760: real time    0.0750
    --------------------------------------------
      LOOP:  cpu time    6.2251: real time    6.2413

 eigenvalue-minimisations  :  3672
 total energy-change (2. order) :-0.5604007E-01  (-0.2922322E-02)
 number of electron      54.0000192 magnetization      -0.0000000      0.0000000      7.0176407
 augmentation part       -4.7203129 magnetization      -0.0000000      0.0000000      5.3855431

 Broyden mixing:
  rms(total) = 0.40808E-01    rms(broyden)= 0.40807E-01
  rms(prec ) = 0.40924E-01
  weight for this iteration     100.00

 eigenvalues of (default mixing * dielectric matrix)
  average eigenvalue GAMMA=   1.8334
 10.7653  4.1542  2.5392  1.2698  1.2698  1.0027  1.0027  0.2596  0.6755  0.6755
  0.5819  0.5497  0.5020  0.4198

 Free energy of the ion-electron system (eV)
  ---------------------------------------------------
  alpha Z        PSCENC =         8.01204487
  Ewald energy   TEWEN  =     13779.28463645
  -Hartree energ DENC   =    -15894.15655245
  -exchange      EXHF   =         0.00000000
  -V(xc)+E(xc)   XCENC  =      -114.31604259
  PAW double counting   =      3441.67586002    -3245.59785238
  entropy T*S    EENTRO =         0.00000000
  eigenvalues    EBANDS =      -455.43083815
  atomic energy  EATOM  =      2448.93098101
  Solvation  Ediel_sol  =         0.00000000
  ---------------------------------------------------
  free energy    TOTEN  =       -31.59776322 eV

  energy without entropy =      -31.59776322  energy(sigma->0) =      -31.59776322


--------------------------------------------------------------------------------------------------------




--------------------------------------- Iteration      1(  20)  ---------------------------------------


    POTLOK:  cpu time    0.4869: real time    0.4875
    SETDIJ:  cpu time    0.0520: real time    0.0517
     EDDAV:  cpu time    5.2712: real time    5.2802
 BZINTS: Fermi energy: -4.061963; 54.000000 electrons
         Band energy:-458.365448;  BLOECHL correction:  0.000000
       DOS:  cpu time    0.0050: real time    0.0054
 


 total charge     
 
# of ion       s       p       d       tot
------------------------------------------
    1        0.307   0.372   4.143   4.823
    2        0.306   0.372   4.154   4.832
    3        1.513   2.756   0.020   4.289
    4        1.514   2.757   0.020   4.290
    5        1.514   2.754   0.020   4.288
    6        1.515   2.751   0.019   4.286
    7        1.513   2.756   0.020   4.289
    8        1.515   2.750   0.019   4.285
--------------------------------------------------
tot          9.698  17.269   8.414  35.381
 


 magnetization (x)
 
# of ion       s       p       d       tot
------------------------------------------
    1        0.000  -0.000  -0.001  -0.001
    2       -0.000  -0.000   0.001   0.001
    3        0.000  -0.001  -0.000  -0.001
    4        0.000  -0.001  -0.000  -0.000
    5       -0.000   0.000  -0.000  -0.000
    6       -0.000  -0.000   0.000  -0.000
    7       -0.000   0.001   0.000   0.001
    8        0.000  -0.000  -0.000  -0.000
--------------------------------------------------
tot          0.000  -0.001  -0.000  -0.001
 


 magnetization (y)
 
# of ion       s       p       d       tot
------------------------------------------
    1        0.000   0.000  -0.003  -0.002
    2       -0.000   0.000   0.002   0.002
    3       -0.000  -0.000   0.000  -0.000
    4       -0.000   0.000   0.000   0.000
    5       -0.000   0.000   0.000   0.000
    6        0.000   0.000  -0.000   0.000
    7       -0.000   0.001  -0.000   0.001
    8       -0.000   0.001  -0.000   0.001
--------------------------------------------------
tot         -0.000   0.003  -0.000   0.002
 


 magnetization (z)
 
# of ion       s       p       d       tot
------------------------------------------
    1        0.041   0.042   3.078   3.160
    2        0.041   0.042   3.091   3.175
    3       -0.003  -0.093   0.004  -0.092
    4       -0.003  -0.091   0.004  -0.089
    5       -0.003  -0.095   0.004  -0.093
    6       -0.003  -0.091   0.004  -0.089
    7       -0.003  -0.093   0.004  -0.091
    8       -0.003  -0.092   0.004  -0.091
--------------------------------------------------
tot          0.065  -0.471   6.195   5.790
 
    CHARGE:  cpu time    0.3679: real time    0.3690
    MIXING:  cpu time    0.0720: real time    0.0711
    --------------------------------------------
      LOOP:  cpu time    6.2550: real time    6.2650

 eigenvalue-minimisations  :  3592
 total energy-change (2. order) :-0.1662157E+00  (-0.2601187E-02)
 number of electron      54.0000192 magnetization      -0.0000000      0.0000000      6.6216820
 augmentation part       -4.7281543 magnetization      -0.0000000      0.0000000      4.9865881

 Broyden mixing:
  rms(total) = 0.33859E-01    rms(broyden)= 0.33859E-01
  rms(prec ) = 0.33993E-01
  weight for this iteration     100.00

 eigenvalues of (default mixing * dielectric matrix)
  average eigenvalue GAMMA=   1.9669
 12.1340  5.1662  2.6555  1.8622  1.2065  1.2065  0.8682  0.8682  0.2596  0.6481
[...]
  0.000  -0.000   0.000  -0.000   0.000   0.000   0.000   0.000  -0.000  -0.000   0.000  -0.000   0.000  -0.000   0.000   0.000
 pseudopotential strength for first ion, spin component:           4
 -7.897   0.000  -0.203   0.000  -0.000   0.000   0.000   0.000  -0.000  -0.031  -8.285   0.000  -0.199   0.000  -0.000   0.000
 -0.203   0.000  -8.062   0.000  -0.000   0.000   0.000  -0.015   0.000   0.000  -0.199   0.000  -8.446   0.000  -0.000   0.000
 -0.000   0.000  -0.000   0.000  -7.765   0.000  -0.000   0.000   0.000   0.000  -0.000   0.000  -0.000   0.000  -8.155   0.000
  0.000   0.000   0.000   0.015  -0.000   0.000  -8.062   0.000   0.203   0.000   0.000   0.000   0.000   0.015  -0.000   0.000
 -0.000   0.031   0.000   0.000   0.000   0.000   0.203   0.000  -7.897   0.000  -0.000   0.030   0.000   0.000   0.000   0.000
 -8.285   0.000  -0.199   0.000  -0.000   0.000   0.000   0.000  -0.000  -0.030  -8.634   0.000  -0.194   0.000  -0.000   0.000
 -0.199   0.000  -8.446   0.000  -0.000   0.000   0.000  -0.015   0.000   0.000  -0.194   0.000  -8.791   0.000  -0.000   0.000
 -0.000   0.000  -0.000   0.000  -8.155   0.000  -0.000   0.000   0.000   0.000  -0.000   0.000  -0.000   0.000  -8.507   0.000
  0.000   0.000   0.000   0.015  -0.000   0.000  -8.446   0.000   0.199   0.000   0.000   0.000   0.000   0.014  -0.000   0.000
 -0.000   0.030   0.000   0.000   0.000   0.000   0.199   0.000  -8.285   0.000  -0.000   0.028   0.000   0.000   0.000   0.000
 -0.000   0.000  -0.000   0.000   0.003   0.000  -0.000   0.000   0.000   0.000  -0.000   0.000  -0.000   0.000   0.003   0.000
 -0.000   0.000  -0.000   0.000   0.006   0.000  -0.000   0.000   0.000   0.000  -0.000   0.000  -0.000   0.000   0.006   0.000
  0.000   0.000   0.000   0.000   0.000   0.000   0.000   0.000   0.000   0.000   0.000   0.000   0.000   0.000   0.000   0.000
  0.000   0.000  -0.000   0.000   0.000   0.000   0.000   0.000   0.000   0.000   0.000   0.000  -0.000   0.000   0.000   0.000
  0.000   0.000   0.000   0.000   0.000   0.000   0.000   0.000  -0.000   0.000   0.000   0.000   0.000   0.000   0.000   0.000
 -0.000   0.000   0.000   0.000   0.000   0.000   0.000   0.000   0.001   0.000  -0.000   0.000   0.000   0.000   0.000   0.000
  0.000   0.000  -0.000   0.000   0.000   0.000   0.000   0.000   0.000   0.000   0.000   0.000  -0.000   0.000   0.000   0.000
  0.001   0.000   0.000   0.000  -0.000   0.000   0.000   0.000   0.000   0.000   0.001   0.000   0.000   0.000  -0.000   0.000
 total augmentation occupancy for first ion, spin component:           1
  2.508  -1.040   0.000   0.000  -0.000  -1.492   0.231  -0.000  -0.000   0.000   0.000   0.000  -0.000   0.000   0.054   0.000
 -1.040   1.655  -0.000  -0.000   0.000   0.229  -1.249   0.000   0.000   0.000  -0.000  -0.000  -0.000  -0.000  -0.017   0.000
  0.000  -0.000   3.156  -0.000  -0.000  -0.000   0.000  -1.576   0.000   0.000   0.003  -0.003  -0.000   0.000   0.000   0.000
  0.000  -0.000  -0.000   1.655   1.040   0.000  -0.000   0.000  -1.249  -0.229   0.000   0.000   0.017   0.000  -0.000   0.000
 -0.000   0.000  -0.000   1.040   2.508  -0.000  -0.000   0.000  -0.231  -1.492  -0.000   0.000   0.054  -0.000   0.000  -0.001
 -1.492   0.229  -0.000   0.000  -0.000   1.442   0.397   0.000  -0.000  -0.000  -0.000  -0.000   0.000   0.000  -0.060  -0.000
  0.231  -1.249   0.000  -0.000  -0.000   0.397   1.671   0.000  -0.000  -0.000   0.000   0.000   0.000   0.000   0.016  -0.000
 -0.000   0.000  -1.576   0.000   0.000   0.000   0.000   1.082   0.000  -0.000  -0.007   0.003   0.000  -0.000  -0.000  -0.000
 -0.000   0.000   0.000  -1.249  -0.231  -0.000  -0.000   0.000   1.671  -0.397   0.000   0.000  -0.016  -0.000   0.000  -0.000
  0.000   0.000   0.000  -0.229  -1.492   0.000  -0.000  -0.000  -0.397   1.442   0.000   0.000  -0.060   0.000  -0.000   0.002
  0.000  -0.000   0.003   0.000  -0.000  -0.000  -0.000  -0.007   0.000   0.000   1.527  -0.148  -0.000   0.000   0.000  -0.000
  0.000  -0.000  -0.003   0.000   0.000  -0.000   0.000   0.003  -0.000   0.000  -0.148   0.020   0.000  -0.000   0.000   0.000
 -0.000  -0.000  -0.000   0.017   0.054   0.000   0.000   0.000  -0.016  -0.060   0.000   0.000   0.212   0.000  -0.000  -0.004
  0.000   0.000   0.000   0.000   0.000   0.000  -0.000  -0.000  -0.000   0.000   0.000  -0.000   0.000   0.211  -0.000   0.000
  0.054  -0.017   0.000  -0.000   0.000  -0.060   0.016  -0.000   0.000  -0.000   0.000   0.000  -0.000   0.000   0.212  -0.000
  0.000   0.000   0.000   0.000  -0.001  -0.000  -0.000  -0.000  -0.000   0.002   0.000  -0.000  -0.004   0.000  -0.000   0.000
  0.000   0.000   0.000  -0.000  -0.000   0.000   0.000   0.000   0.000   0.000  -0.000   0.000   0.000  -0.004  -0.000  -0.000
 -0.001  -0.000  -0.000   0.000  -0.000   0.002   0.000   0.000  -0.000   0.000  -0.000  -0.000   0.000  -0.000  -0.004  -0.000
 total augmentation occupancy for first ion, spin component:           2
 -0.019  -0.006  -0.000  -0.000   0.000   0.025   0.010   0.000   0.000  -0.000   0.000  -0.000   0.000   0.003   0.001   0.000
 -0.006   0.019  -0.000  -0.000   0.000   0.005  -0.026   0.000   0.000  -0.000  -0.000   0.000  -0.000  -0.003   0.003   0.000
 -0.000  -0.000   0.000   0.025  -0.018   0.000   0.000  -0.000  -0.032   0.027  -0.000   0.000  -0.001   0.000  -0.000  -0.000
 -0.000  -0.000   0.025  -0.019  -0.006   0.000   0.000  -0.027   0.026   0.005  -0.004   0.000   0.003  -0.000   0.000  -0.000
  0.000   0.000  -0.018  -0.006   0.019  -0.000  -0.000   0.013   0.010  -0.025   0.001   0.000  -0.001  -0.000   0.000   0.000
  0.025   0.005   0.000   0.000  -0.000  -0.023  -0.007  -0.000  -0.000   0.000  -0.000  -0.000  -0.000  -0.000  -0.001  -0.000
  0.010  -0.026   0.000   0.000  -0.000  -0.007   0.023  -0.000  -0.000   0.000   0.000  -0.000  -0.000   0.002  -0.002  -0.000
  0.000   0.000  -0.000  -0.027   0.013  -0.000  -0.000   0.000   0.025  -0.017   0.000   0.000   0.001  -0.000   0.000   0.000
  0.000   0.000  -0.032   0.026   0.010  -0.000  -0.000   0.025  -0.023  -0.007   0.002  -0.000  -0.002   0.000   0.000   0.000
 -0.000  -0.000   0.027   0.005  -0.025   0.000   0.000  -0.017  -0.007   0.023  -0.001  -0.000   0.001   0.000  -0.000  -0.000
  0.000  -0.000  -0.000  -0.004   0.001  -0.000   0.000   0.000   0.002  -0.001   0.000   0.000   0.000   0.000  -0.000   0.000
 -0.000   0.000   0.000   0.000   0.000  -0.000  -0.000  -0.000  -0.000  -0.000   0.000   0.000  -0.000   0.000  -0.000  -0.000
  0.000  -0.000  -0.001   0.003  -0.001  -0.000  -0.000   0.001  -0.002   0.001   0.000  -0.000  -0.000  -0.000   0.000  -0.000
  0.003  -0.003   0.000  -0.000  -0.000  -0.000   0.002  -0.000   0.000   0.000  -0.000  -0.000  -0.000  -0.000   0.000   0.000
  0.001   0.003  -0.000   0.000   0.000  -0.001  -0.002   0.000   0.000  -0.000  -0.000  -0.000   0.000   0.000   0.000  -0.000
  0.000   0.000  -0.000  -0.000   0.000  -0.000  -0.000   0.000   0.000  -0.000   0.000  -0.000  -0.000   0.000  -0.000   0.000
  0.000   0.000   0.000  -0.000  -0.000   0.000   0.000  -0.000   0.000   0.000   0.000   0.000   0.000   0.000  -0.000  -0.000
 -0.000  -0.000   0.000  -0.000   0.000   0.000   0.000  -0.000   0.000  -0.000  -0.000   0.000  -0.000   0.000   0.000   0.000
 total augmentation occupancy for first ion, spin component:           3
  0.000   0.000   0.018  -0.006   0.019  -0.000  -0.000  -0.013   0.010  -0.025  -0.001  -0.000  -0.001   0.000   0.000   0.000
  0.000   0.000   0.025   0.019   0.006  -0.000  -0.000  -0.027  -0.026  -0.005  -0.004   0.000  -0.003  -0.000  -0.000   0.000
  0.018   0.025   0.000   0.000  -0.000  -0.027  -0.032  -0.000  -0.000   0.000   0.000  -0.000  -0.000  -0.000   0.001   0.000
 -0.006   0.019   0.000  -0.000   0.000   0.005  -0.026  -0.000   0.000  -0.000   0.000  -0.000  -0.000   0.003   0.003   0.000
  0.019   0.006  -0.000   0.000  -0.000  -0.025  -0.010   0.000  -0.000   0.000   0.000  -0.000  -0.000   0.003  -0.001  -0.000
 -0.000  -0.000  -0.027   0.005  -0.025   0.000   0.000   0.017  -0.007   0.023   0.001   0.000   0.001  -0.000  -0.000  -0.000
 -0.000  -0.000  -0.032  -0.026  -0.010   0.000   0.000   0.025   0.023   0.007   0.002  -0.000   0.002   0.000  -0.000  -0.000
 -0.013  -0.027  -0.000  -0.000   0.000   0.017   0.025   0.000   0.000  -0.000   0.000   0.000   0.000   0.000  -0.001  -0.000
  0.010  -0.026  -0.000   0.000  -0.000  -0.007   0.023   0.000  -0.000   0.000  -0.000   0.000  -0.000  -0.002  -0.002  -0.000
 -0.025  -0.005   0.000  -0.000   0.000   0.023   0.007  -0.000   0.000  -0.000  -0.000  -0.000   0.000  -0.000   0.001   0.000
 -0.001  -0.004   0.000   0.000   0.000   0.001   0.002  -0.000  -0.000  -0.000  -0.000   0.000  -0.000   0.000  -0.000  -0.000
 -0.000   0.000  -0.000  -0.000  -0.000   0.000  -0.000   0.000   0.000  -0.000   0.000   0.000  -0.000   0.000   0.000   0.000
 -0.001  -0.003  -0.000  -0.000  -0.000   0.001   0.002   0.000  -0.000   0.000  -0.000  -0.000  -0.000   0.000  -0.000   0.000
  0.000  -0.000  -0.000   0.003   0.003  -0.000   0.000   0.000  -0.002  -0.000   0.000   0.000   0.000   0.000   0.000   0.000
  0.000  -0.000   0.001   0.003  -0.001  -0.000  -0.000  -0.001  -0.002   0.001  -0.000   0.000  -0.000   0.000   0.000  -0.000
  0.000   0.000   0.000   0.000  -0.000  -0.000  -0.000  -0.000  -0.000   0.000  -0.000   0.000   0.000   0.000  -0.000  -0.000
  0.000  -0.000   0.000  -0.000   0.000  -0.000   0.000   0.000  -0.000   0.000  -0.000   0.000  -0.000  -0.000  -0.000  -0.000
  0.000   0.000   0.000  -0.000   0.000  -0.000  -0.000  -0.000   0.000  -0.000  -0.000   0.000  -0.000  -0.000  -0.000   0.000
 total augmentation occupancy for first ion, spin component:           4
  1.938  -1.425   0.000   0.000  -0.000  -0.643   0.808  -0.000  -0.000   0.000   0.000   0.000   0.000   0.000   0.012  -0.000
 -1.425   0.843  -0.000  -0.000   0.000   0.806  -0.024   0.000   0.000   0.000  -0.000   0.000   0.000  -0.000  -0.014   0.000
  0.000  -0.000   2.883  -0.000  -0.000  -0.000   0.000  -1.172   0.000   0.000  -0.010  -0.000  -0.000   0.000   0.000  -0.000
  0.000  -0.000  -0.000   0.843   1.425   0.000  -0.000   0.000  -0.024  -0.806   0.000   0.000   0.014  -0.000   0.000   0.000
 -0.000   0.000  -0.000   1.425   1.938  -0.000  -0.000   0.000  -0.808  -0.643   0.000   0.000   0.012  -0.000  -0.000   0.000
 -0.643   0.806  -0.000   0.000  -0.000   0.122  -0.530   0.000  -0.000   0.000   0.000  -0.000  -0.000  -0.000  -0.005   0.000
  0.808  -0.024   0.000  -0.000  -0.000  -0.530  -0.285  -0.000   0.000  -0.000   0.000   0.000  -0.000  -0.000   0.005  -0.000
 -0.000   0.000  -1.172   0.000   0.000   0.000  -0.000   0.474  -0.000  -0.000   0.005  -0.000  -0.000  -0.000  -0.000   0.000
 -0.000   0.000   0.000  -0.024  -0.808  -0.000   0.000  -0.000  -0.285   0.530   0.000  -0.000  -0.005  -0.000  -0.000  -0.000
  0.000   0.000   0.000  -0.806  -0.643  -0.000  -0.000  -0.000   0.530   0.122  -0.000   0.000  -0.005  -0.000   0.000  -0.000
  0.000  -0.000  -0.010   0.000  -0.000   0.000   0.000   0.005   0.000  -0.000   0.013   0.040  -0.000  -0.000  -0.000   0.000
  0.000   0.000  -0.000   0.000   0.000  -0.000   0.000  -0.000  -0.000   0.000   0.040  -0.007  -0.000   0.000  -0.000   0.000
  0.000   0.000  -0.000   0.014   0.012  -0.000  -0.000   0.000  -0.005  -0.005   0.000   0.000   0.020   0.000  -0.000   0.001
 -0.000   0.000   0.000  -0.000  -0.000   0.000   0.000  -0.000   0.000  -0.000  -0.000   0.000   0.000   0.017   0.000   0.000
  0.012  -0.014   0.000   0.000  -0.000  -0.005   0.005  -0.000  -0.000   0.000   0.000   0.000  -0.000  -0.000   0.020  -0.000
 -0.000   0.000  -0.000   0.000   0.000   0.000  -0.000   0.000  -0.000  -0.000  -0.000   0.000   0.001   0.000  -0.000  -0.000
  0.000  -0.000   0.000   0.000  -0.000   0.000   0.000  -0.000  -0.000   0.000  -0.000  -0.000   0.000   0.001   0.000   0.000
  0.000  -0.000   0.000   0.000   0.000  -0.000   0.000  -0.000  -0.000  -0.000   0.000  -0.000   0.000   0.000   0.001   0.000


------------------------ aborting loop because EDIFF is reached ----------------------------------------


 


 total charge     
 
# of ion       s       p       d       tot
------------------------------------------
    1        0.322   0.407   4.177   4.906
    2        0.321   0.406   4.186   4.913
    3        1.512   2.765   0.021   4.298
    4        1.512   2.766   0.021   4.299
    5        1.512   2.763   0.021   4.297
    6        1.515   2.757   0.021   4.293
    7        1.512   2.765   0.021   4.298
    8        1.515   2.756   0.021   4.292
--------------------------------------------------
tot          9.721  17.385   8.490  35.596
 


 magnetization (x)
 
# of ion       s       p       d       tot
------------------------------------------
    1        0.000  -0.000  -0.001  -0.001
    2       -0.000  -0.000   0.001   0.001
    3        0.000  -0.001  -0.000  -0.001
    4        0.000  -0.001  -0.000  -0.001
    5       -0.000  -0.000  -0.000  -0.001
    6       -0.000   0.000   0.000   0.000
    7       -0.000   0.002   0.000   0.002
    8        0.000   0.001   0.000   0.001
--------------------------------------------------
tot         -0.000   0.000   0.000   0.000
 


 magnetization (y)
 
# of ion       s       p       d       tot
------------------------------------------
    1        0.001   0.000  -0.005  -0.004
    2       -0.000   0.000   0.004   0.004
    3       -0.000   0.001   0.000   0.001
    4       -0.000  -0.001   0.000  -0.001
    5        0.000   0.000   0.000   0.001
    6        0.000  -0.002  -0.000  -0.001
    7        0.000   0.001  -0.000   0.001
    8       -0.000  -0.000   0.000  -0.001
--------------------------------------------------
tot          0.000  -0.000  -0.001  -0.001
 


 magnetization (z)
 
# of ion       s       p       d       tot
------------------------------------------
    1        0.039   0.044   3.026   3.109
    2        0.040   0.045   3.032   3.116
    3       -0.002  -0.081   0.005  -0.078
    4       -0.002  -0.079   0.005  -0.076
    5       -0.002  -0.083   0.005  -0.080
    6       -0.002  -0.080   0.005  -0.078
    7       -0.002  -0.081   0.005  -0.078
    8       -0.002  -0.083   0.005  -0.079
--------------------------------------------------
tot          0.067  -0.398   6.088   5.757
 
    CHARGE:  cpu time    0.3699: real time    0.3703
    FORLOC:  cpu time    0.0200: real time    0.0190
    FORNL :  cpu time    1.9187: real time    1.9220
    STRESS:  cpu time    2.6316: real time    2.6315
    FORCOR:  cpu time    0.4679: real time    0.4685
    FORHAR:  cpu time    0.0520: real time    0.0520
    MIXING:  cpu time    0.2670: real time    0.2662
    OFIELD:  cpu time    0.0000: real time    0.0000

  FORCE on cell =-STRESS in cart. coord.  units (eV):
  Direction    XX          YY          ZZ          XY          YZ          ZX
  --------------------------------------------------------------------------------------
  Alpha Z     8.01204     8.01204     8.01204
  Ewald   15163.74010 15163.74010-16614.30809     0.00000     0.00000     0.00000
  Hartree 15569.63758 15569.63758-15313.03313     0.00000    -0.00000    -0.00000
  E(xc)    -215.59555  -215.59556  -216.07494    -0.00001     0.00000     0.00000
  Local  -31723.58512-31723.58593 30935.65756    -0.00070     0.00001     0.00001
  n-local   815.63237   816.18697   816.34334    -0.63954    -0.43397     0.22443
  augment  -160.41883  -160.41805  -160.95873     0.00068    -0.00002    -0.00000
  Kinetic   542.83193   541.57881   544.20438     1.27896    -0.25870     0.10297
  Fock        0.00000     0.00000     0.00000     0.00000     0.00000     0.00000
  -------------------------------------------------------------------------------------
  Total      -0.09476    -0.09476    -0.15757    -0.00000     0.00000     0.00000
  in kB      -0.08944    -0.08944    -0.14873    -0.00000     0.00000     0.00000
  external pressure =       -0.11 kB  Pullay stress =        0.00 kB


 VOLUME and BASIS-vectors are now :
 -----------------------------------------------------------------------------
  energy-cutoff  :      300.00
  volume of cell :     1697.41
      direct lattice vectors                 reciprocal lattice vectors
     7.000000000  0.000000000  0.000000000     0.142857143  0.082478610  0.000000000
    -3.500000000  6.062177826  0.000000000     0.000000000  0.164957220  0.000000000
     0.000000000  0.000000000 40.000000000     0.000000000  0.000000000  0.025000000

  length of vectors
     7.000000000  7.000000000 40.000000000     0.164957220  0.164957220  0.025000000


 FORCES acting on ions
    electron-ion (+dipol)            ewald-force                    non-local-force                 convergence-correction
 -----------------------------------------------------------------------------------------------
   -.194E-06 0.135E-06 -.717E-03   0.173E-11 -.103E-11 0.727E-03   -.108E-18 -.788E-18 -.233E-04   0.601E-09 -.427E-09 -.419E-05
   0.194E-06 -.135E-06 0.717E-03   -.747E-11 0.440E-11 -.727E-03   0.542E-18 -.128E-17 0.233E-04   -.601E-09 0.427E-09 0.419E-05
   -.260E+02 -.450E+02 0.404E+03   0.269E+02 0.466E+02 -.406E+03   -.939E+00 -.163E+01 0.265E+01   -.231E-03 -.396E-03 0.106E-03
   0.520E+02 0.103E-03 0.404E+03   -.538E+02 -.104E-03 -.406E+03   0.188E+01 0.574E-05 0.265E+01   0.458E-03 -.229E-05 0.106E-03
   -.520E+02 -.103E-03 -.404E+03   0.538E+02 0.104E-03 0.406E+03   -.188E+01 -.574E-05 -.265E+01   -.458E-03 0.229E-05 -.106E-03
   0.260E+02 -.450E+02 -.404E+03   -.269E+02 0.466E+02 0.406E+03   0.939E+00 -.163E+01 -.265E+01   0.227E-03 -.398E-03 -.106E-03
   0.260E+02 0.450E+02 -.404E+03   -.269E+02 -.466E+02 0.406E+03   0.939E+00 0.163E+01 -.265E+01   0.231E-03 0.396E-03 -.106E-03
   -.260E+02 0.450E+02 0.404E+03   0.269E+02 -.466E+02 -.406E+03   -.939E+00 0.163E+01 0.265E+01   -.227E-03 0.398E-03 0.106E-03
 -----------------------------------------------------------------------------------------------
   0.159E-09 -.904E-10 0.770E-12   0.355E-14 0.213E-13 -.568E-13   -.111E-15 0.444E-15 -.444E-15   0.177E-12 0.126E-12 0.213E-10
 
 
 POSITION                                       TOTAL-FORCE (eV/Angst)
 -----------------------------------------------------------------------------------
     -0.00000     -0.00000     20.00000         0.000000     -0.000000     -0.000018
      0.00000      4.04145     20.00000         0.000000     -0.000000      0.000018
      2.24551     -0.15211     18.43549        -0.010126     -0.017537      0.009015
     -0.99102      2.02072     18.43549         0.020250     -0.000001      0.009015
      0.99102      2.02073     21.56451        -0.020250      0.000001     -0.009015
      4.75449     -0.15211     21.56451         0.010124     -0.017538     -0.009015
     -2.24551      4.19357     21.56451         0.010126      0.017537     -0.009015
      2.24551      4.19357     18.43549        -0.010124      0.017538      0.009015
 -----------------------------------------------------------------------------------
    total drift:                                0.000000     -0.000000      0.000000


--------------------------------------------------------------------------------------------------------



  FREE ENERGIE OF THE ION-ELECTRON SYSTEM (eV)
  ---------------------------------------------------
  free  energy   TOTEN  =       -32.32130118 eV

  energy  without entropy=      -32.32130118  energy(sigma->0) =      -32.32130118
 
 d Force = 0.2089641E-15[ 0.209E-15, 0.209E-15]  d Energy =-0.1236603E-04 0.124E-04
 d Force =-0.1074207E-10[-0.107E-10,-0.107E-10]  d Ewald  = 0.0000000E+00-0.109E-10


--------------------------------------------------------------------------------------------------------


    POTLOK:  cpu time    0.5429: real time    0.5434


--------------------------------------------------------------------------------------------------------


